/*--------------------------------*- C++ -*----------------------------------*\
| =========                 |                                                 |
| \\      /  F ield         | OpenFOAM: The Open Source CFD Toolbox           |
|  \\    /   O peration     | Version:  2506                                  |
|   \\  /    A nd           | Website:  www.openfoam.com                      |
|    \\/     M anipulation  |                                                 |
\*---------------------------------------------------------------------------*/
FoamFile
{
    version     2.0;
    format      ascii;
    arch        "LSB;label=32;scalar=64";
    class       volScalarField;
    location    "2500/air";
    object      alphat;
}
// * * * * * * * * * * * * * * * * * * * * * * * * * * * * * * * * * * * * * //

dimensions      [1 -1 -1 0 0 0 0];

internalField   nonuniform List<scalar> 
33752
(
0.009494322
0.009456142
0.009422356
0.00939639
0.009375501
0.009358005
0.009342946
0.009329753
0.009318141
0.009308046
0.009299564
0.009292897
0.009288322
0.009286164
0.009286616
0.009289808
0.009295757
0.00930436
0.009315413
0.009328642
0.009343754
0.009360483
0.009378648
0.009398207
0.009419323
0.00944245
0.00946845
0.009498977
0.0095369
0.009578703
0.009455475
0.009395372
0.009349177
0.009316969
0.009292876
0.009273681
0.009257616
0.009243702
0.009231465
0.009220763
0.009211675
0.009204421
0.009199348
0.009196802
0.009196976
0.009200019
0.009205949
0.00921465
0.009225891
0.009239369
0.009254759
0.009271787
0.009290297
0.009310334
0.009332272
0.009356994
0.009386206
0.009423134
0.009473779
0.009537861
0.009420997
0.009348386
0.009290879
0.009250971
0.009221858
0.009199281
0.009180734
0.009164792
0.009150747
0.009138353
0.009127675
0.009118978
0.009112692
0.009109223
0.009108829
0.009111693
0.009117838
0.009127115
0.009139239
0.009153834
0.009170513
0.009188965
0.009209055
0.00923094
0.009255236
0.009283285
0.009317532
0.009362223
0.00942427
0.00950097
0.009394053
0.009315134
0.00924988
0.009203332
0.009168943
0.009142181
0.009120156
0.009101132
0.009084215
0.00906909
0.009055837
0.009044812
0.00903659
0.009031673
0.009030437
0.009033125
0.009039764
0.009050159
0.009063926
0.009080568
0.009099582
0.009120574
0.009143389
0.009168253
0.009195965
0.009228166
0.009267662
0.009318959
0.009388741
0.009471795
0.009371877
0.009289745
0.009219434
0.009167575
0.009128132
0.009096735
0.009070427
0.009047337
0.009026472
0.0090075
0.008990563
0.008976194
0.008965193
0.008958201
0.008955784
0.008958283
0.008965737
0.008977873
0.008994155
0.009013894
0.009036392
0.009061101
0.009087782
0.009116661
0.009148614
0.009185392
0.009229858
0.00928638
0.009361187
0.009447471
0.009352826
0.00926903
0.009195336
0.00913926
0.009095151
0.009058899
0.009027665
0.008999598
0.008973708
0.008949712
0.008927888
0.008909071
0.008894277
0.008884466
0.00888045
0.008882725
0.008891351
0.008905942
0.008925733
0.008949743
0.008976976
0.009006635
0.009038311
0.009072141
0.009108964
0.009150504
0.009199526
0.009260183
0.009338347
0.009426295
0.009335989
0.009251258
0.009175121
0.009115561
0.009067137
0.00902593
0.008989251
0.008955363
0.00892338
0.008893125
0.008865135
0.00884066
0.008820962
0.008807457
0.008801325
0.008803297
0.008813484
0.008831338
0.00885576
0.008885342
0.008918659
0.00895455
0.008992332
0.009031961
0.009074156
0.009120549
0.009173792
0.009237879
0.009318475
0.009407351
0.00932084
0.009235486
0.009157397
0.009094786
0.009042287
0.00899607
0.00895354
0.008913086
0.008874001
0.008836272
0.008800971
0.008769542
0.008743765
0.008725583
0.00871669
0.008718186
0.008730297
0.008752272
0.008782535
0.008819076
0.008859878
0.008903279
0.008948218
0.008994393
0.009042373
0.009093704
0.009150972
0.009218092
0.009300645
0.009390135
0.009307131
0.009221273
0.009141483
0.00907607
0.009019656
0.008968409
0.008919751
0.008872159
0.008825154
0.008778945
0.008735465
0.008695788
0.008662542
0.00863847
0.00862603
0.008626875
0.008641346
0.008668355
0.008705718
0.008750657
0.008800257
0.008852308
0.008905293
0.008958617
0.009012702
0.00906905
0.009130238
0.009200177
0.009284455
0.009374448
0.009294817
0.009208496
0.009127153
0.009059117
0.008998935
0.008942716
0.008887833
0.008832798
0.008777282
0.008722372
0.008669496
0.008620697
0.008578954
0.008548168
0.008531789
0.008532186
0.008549739
0.00858268
0.008627717
0.008681335
0.008740484
0.008802094
0.008863742
0.008924597
0.008984962
0.009046337
0.009111348
0.009183963
0.00926984
0.00936031
0.009283989
0.009197241
0.009114477
0.009044013
0.008980287
0.008919302
0.008858343
0.008795937
0.008731884
0.008668264
0.00860539
0.008545617
0.00849353
0.008456554
0.008438395
0.008438427
0.008457108
0.008495209
0.008550036
0.008613903
0.008682918
0.008753896
0.008824498
0.008892977
0.008959556
0.00902581
0.009094464
0.00916959
0.009256957
0.009347902
0.00927478
0.00918772
0.009103712
0.009031096
0.008964191
0.008898875
0.008832312
0.008763011
0.008691178
0.00861863
0.008544912
0.008473529
0.008418681
0.008379203
0.008357723
0.008357253
0.008378527
0.008419003
0.008475243
0.008550441
0.008629829
0.008710375
0.008789271
0.008864944
0.00893732
0.009008055
0.009080012
0.009157397
0.009246106
0.009337516
0.009267759
0.009180265
0.009095212
0.009020826
0.008951296
0.008882367
0.00881107
0.00873583
0.00865744
0.008576403
0.008492616
0.008418447
0.00835791
0.008312388
0.00828724
0.008286202
0.008310302
0.008356284
0.008418779
0.008495394
0.008584469
0.008673844
0.008760226
0.008842014
0.008919333
0.008993844
0.009068566
0.009147845
0.009237686
0.009329529
0.009262726
0.009175087
0.009089317
0.009013674
0.008942263
0.008870728
0.008795998
0.008716309
0.008632952
0.008545401
0.008455455
0.008379131
0.008312723
0.008262294
0.008234139
0.008232573
0.00825889
0.008309344
0.008377605
0.008456981
0.008551091
0.008647016
0.008739324
0.008825763
0.008906705
0.008983971
0.00906076
0.009141414
0.009232084
0.009324296
0.009260233
0.009172468
0.009086318
0.00901002
0.008937627
0.008864726
0.008788184
0.008706075
0.008619999
0.008528819
0.008437369
0.008358068
0.008288353
0.00823517
0.008205263
0.008203329
0.008230891
0.008283892
0.008355409
0.008437758
0.008533177
0.008632678
0.008728353
0.008817314
0.008900175
0.00897888
0.009056721
0.009138091
0.009229207
0.00932164
0.009260327
0.009172567
0.009086417
0.009010117
0.008937719
0.008864811
0.00878826
0.008706142
0.008620056
0.008528871
0.008437418
0.00835811
0.008288387
0.0082352
0.008205293
0.008203364
0.008230933
0.008283943
0.008355471
0.008437833
0.008533272
0.008632766
0.008728433
0.008817396
0.008900258
0.008978971
0.00905682
0.009138201
0.009229335
0.009321795
0.009262989
0.009175378
0.009089611
0.00901396
0.008942534
0.008870979
0.008796222
0.008716506
0.00863312
0.008545551
0.008455599
0.008379256
0.008312826
0.008262382
0.008234225
0.00823267
0.008259007
0.008309489
0.008377782
0.008457196
0.008551349
0.008647256
0.008739553
0.008826007
0.008906969
0.008984258
0.00906108
0.009141771
0.009232495
0.009324798
0.009268103
0.009180731
0.00909569
0.009021291
0.008951737
0.008882775
0.008811437
0.00873615
0.008657712
0.008576638
0.008492825
0.008418653
0.00835809
0.008312547
0.008287393
0.008286367
0.008310498
0.008356522
0.008419071
0.008495794
0.008584846
0.008674202
0.008760582
0.008842412
0.008919807
0.008994372
0.009069217
0.00914857
0.009238497
0.009330497
0.009275553
0.009188409
0.00910437
0.009031725
0.008964786
0.008899427
0.008832811
0.008763447
0.00869155
0.008618937
0.008545149
0.008473803
0.008418946
0.008379449
0.008357961
0.008357504
0.008378813
0.008419342
0.008475714
0.008550901
0.008630272
0.008710802
0.008789709
0.008865433
0.008937886
0.009008676
0.009080759
0.009158224
0.009247025
0.009338598
0.009284854
0.009198076
0.009115281
0.009044781
0.008981013
0.008919978
0.008858959
0.008796479
0.008732347
0.008668654
0.008605724
0.008545943
0.008493874
0.008456888
0.008438725
0.008438772
0.008457492
0.008495706
0.00855052
0.008614378
0.008683385
0.008754348
0.008824971
0.008893481
0.008960092
0.009026375
0.009095074
0.009170252
0.00925769
0.009348742
0.009295789
0.009209448
0.00912807
0.009059992
0.008999764
0.008943491
0.008888544
0.008833433
0.00877783
0.008722833
0.008669892
0.008621056
0.008579303
0.008548529
0.008532175
0.008532598
0.008550168
0.008583124
0.008628169
0.008681787
0.008740935
0.008802566
0.008864229
0.008925102
0.008985484
0.009046875
0.009111912
0.009184565
0.009270495
0.009361039
0.009308185
0.009222307
0.009142479
0.00907702
0.009020555
0.008969253
0.008920531
0.008872863
0.008825769
0.008779469
0.008735904
0.008696167
0.008662887
0.008638803
0.008626368
0.008627226
0.008641712
0.008668732
0.008706107
0.008751063
0.008800687
0.008852763
0.008905769
0.008959108
0.009013205
0.009069565
0.009130773
0.00920074
0.009285055
0.009375107
0.009321943
0.009236566
0.009158437
0.009095776
0.009043224
0.008996951
0.008954358
0.008913831
0.008874662
0.008836842
0.008801453
0.008769949
0.008744116
0.0087259
0.008716993
0.008718487
0.008730603
0.008752592
0.008782875
0.008819443
0.008860273
0.008903699
0.008948658
0.008994847
0.009042839
0.009094184
0.00915147
0.00921861
0.009301176
0.009390723
0.009337107
0.009252351
0.009176172
0.00911656
0.009068081
0.009026816
0.008990075
0.008956119
0.008924057
0.008893713
0.008865645
0.008841087
0.008821321
0.008807766
0.008801603
0.00880356
0.008813746
0.008831611
0.008856054
0.008885661
0.008919003
0.008954915
0.008992715
0.009032357
0.009074566
0.009120977
0.009174242
0.009238354
0.009318978
0.009407903
0.009353928
0.009270107
0.009196371
0.009140243
0.009096077
0.009059766
0.00902847
0.009000336
0.008974375
0.0089503
0.008928397
0.008909498
0.008894633
0.008884764
0.008880708
0.008882957
0.008891574
0.008906168
0.008925973
0.00895
0.008977251
0.009006927
0.009038619
0.009072464
0.009109306
0.009150867
0.009199914
0.0092606
0.009338799
0.009426795
0.009372941
0.009290786
0.009220434
0.009168525
0.009129025
0.009097568
0.009071197
0.009048041
0.009027105
0.009008059
0.008991045
0.008976598
0.008965526
0.008958473
0.008956009
0.008958476
0.008965912
0.008978041
0.008994326
0.009014075
0.009036585
0.009061309
0.009088007
0.009116906
0.009148881
0.009185685
0.009230177
0.009286729
0.009361571
0.009447904
0.009395067
0.009316127
0.009250837
0.009204241
0.009169798
0.009142977
0.009120888
0.009101796
0.009084807
0.009069608
0.009056279
0.009045179
0.009036885
0.009031906
0.009030619
0.009033268
0.009039882
0.009050263
0.009064025
0.009080671
0.009099695
0.009120702
0.009143537
0.009168425
0.009196165
0.009228392
0.009267914
0.009319238
0.009389053
0.009472155
0.009421964
0.009349334
0.009291794
0.009251845
0.009222682
0.009200048
0.009181437
0.009165427
0.009151308
0.009138838
0.009128083
0.009119309
0.00911295
0.009109417
0.009108969
0.009111791
0.009117904
0.009127164
0.009139279
0.009153876
0.009170566
0.009189036
0.009209149
0.009231061
0.009255384
0.00928346
0.009317729
0.009362442
0.009424517
0.009501261
0.009456407
0.009396287
0.009350064
0.009317819
0.009293683
0.009274437
0.009258312
0.00924433
0.009232019
0.009221238
0.00921207
0.009204737
0.009199589
0.009196977
0.009197096
0.009200094
0.009205992
0.009214674
0.009225908
0.009239388
0.009254791
0.009271839
0.009290374
0.009310439
0.009332404
0.00935715
0.009386381
0.009423322
0.009473984
0.009538098
0.009495236
0.009457041
0.00942323
0.009397234
0.009376307
0.009358766
0.009343651
0.009330392
0.009318706
0.009308532
0.009299969
0.009293222
0.009288572
0.009286347
0.009286744
0.009289893
0.009295811
0.009304397
0.009315444
0.00932868
0.009343806
0.009360558
0.009378749
0.009398337
0.00941948
0.009442629
0.009468644
0.009499178
0.009537106
0.00957892
0.0894099
0.08954505
0.08957743
0.08953431
0.0894521
0.08935039
0.08923939
0.08912517
0.08901236
0.08890556
0.08880983
0.08873064
0.08867332
0.08864271
0.08864267
0.08867522
0.08874052
0.0888368
0.08896055
0.08910691
0.08927019
0.08944431
0.08962322
0.0898009
0.08997098
0.09012537
0.09025155
0.09032735
0.09031323
0.09017931
0.08954355
0.08973798
0.0897997
0.08976403
0.08967823
0.0895676
0.08944515
0.08931831
0.08919245
0.08907275
0.08896488
0.08887489
0.08880864
0.08877167
0.08876835
0.08880094
0.08886956
0.08897221
0.08910493
0.08926228
0.08943789
0.08962505
0.08981707
0.09000735
0.09018873
0.09035177
0.09048121
0.09054942
0.09050645
0.0903144
0.08956998
0.08979432
0.08987523
0.08984264
0.08974821
0.08962142
0.08947816
0.08932763
0.08917654
0.0890313
0.08889889
0.08878672
0.08870202
0.08865182
0.08864141
0.08867355
0.08874837
0.08886332
0.08901347
0.08919211
0.08939143
0.08960327
0.08981963
0.09003267
0.09023397
0.0904124
0.09055012
0.09061571
0.09055506
0.09033464
0.08951731
0.08974975
0.0898343
0.08979616
0.08968686
0.08953702
0.08936417
0.08917919
0.08899051
0.08880643
0.08863612
0.08848934
0.08837566
0.08830457
0.08828287
0.08831417
0.08839857
0.08853263
0.08870982
0.08892128
0.08915678
0.08940579
0.08965812
0.08990409
0.09013369
0.09033435
0.0904869
0.09055897
0.09049623
0.09026877
0.08942254
0.08965192
0.08972862
0.08967616
0.08954486
0.08936453
0.089153
0.08892232
0.0886828
0.08844533
0.08822221
0.08802665
0.08787193
0.08777111
0.08773333
0.08776344
0.0878615
0.08802276
0.08823824
0.08849583
0.08878173
0.08908186
0.08938296
0.08967291
0.08993998
0.09017065
0.09034558
0.09043304
0.09037938
0.09015563
0.0893057
0.08952655
0.08958789
0.08951326
0.08935205
0.08913275
0.08887252
0.08858393
0.08827907
0.08797194
0.08767906
0.08741817
0.08720847
0.08706767
0.08700829
0.08703698
0.0871537
0.08735179
0.08761882
0.08793807
0.08829069
0.08865776
0.08902196
0.08936828
0.08968331
0.08995303
0.09015856
0.09026916
0.09023173
0.09001694
0.08917746
0.08938713
0.0894284
0.0893252
0.08912632
0.08885898
0.08853932
0.08817982
0.08779403
0.08739939
0.08701757
0.08667246
0.08639164
0.08619901
0.08611183
0.08613912
0.08628063
0.086527
0.08686099
0.08725965
0.08769733
0.08814881
0.08859181
0.08900801
0.08938242
0.08970076
0.08994482
0.09008482
0.09006812
0.08986482
0.08904429
0.0892415
0.08925979
0.08912323
0.08887995
0.08855594
0.0881662
0.0877227
0.08723998
0.08673895
0.08624638
0.08579636
0.08542618
0.08516822
0.08504621
0.08507256
0.08524657
0.08555485
0.08597349
0.08647125
0.08701386
0.08756824
0.08810629
0.08860613
0.08905123
0.08942719
0.0897166
0.08989074
0.08989758
0.08970701
0.08891113
0.08909542
0.08908914
0.0889161
0.08862345
0.08823579
0.08776671
0.08722734
0.0866325
0.08600587
0.08538012
0.08480354
0.08432432
0.08398509
0.08381853
0.08384398
0.08406064
0.08444786
0.08497162
0.08558977
0.08625785
0.08693328
0.08758165
0.08817754
0.08870301
0.08914383
0.08948362
0.089695
0.08972694
0.0895496
0.08878279
0.08895426
0.08892309
0.08871235
0.08836787
0.08791245
0.08735793
0.08671397
0.08599501
0.08522513
0.084448
0.08372273
0.08310771
0.08265748
0.08242051
0.08244172
0.08272194
0.08321831
0.08387766
0.08464363
0.08545773
0.08626956
0.08704002
0.08774071
0.08835279
0.08886265
0.08925535
0.08950525
0.08956264
0.08939841
0.08866441
0.08882373
0.08876864
0.08852116
0.08812547
0.08760229
0.08696123
0.08620978
0.085361
0.08443775
0.08349685
0.08259936
0.08179307
0.0811413
0.08072376
0.08073312
0.08117543
0.08188007
0.0827341
0.08367541
0.08465298
0.08561259
0.08651032
0.08731835
0.08801804
0.08859694
0.08904196
0.08932943
0.08941131
0.08925945
0.08856143
0.08870982
0.08863318
0.08835228
0.08790956
0.0873235
0.08660129
0.08574768
0.08477246
0.08369964
0.08258753
0.08145633
0.08021904
0.07929455
0.07879439
0.07879627
0.07930635
0.08025977
0.08156213
0.08274563
0.08389939
0.08500502
0.08602648
0.08693629
0.08771803
0.08836099
0.08885411
0.08917581
0.08927973
0.08913884
0.08847852
0.08861829
0.08852398
0.08821538
0.08773338
0.08709446
0.08630351
0.08536269
0.08427668
0.08306987
0.0817712
0.08021357
0.07876851
0.07768701
0.07710768
0.07710294
0.0776792
0.07877624
0.08026423
0.08190202
0.08325575
0.0844955
0.0856238
0.08662086
0.08747211
0.08816896
0.08870227
0.08905235
0.08917437
0.0890423
0.08842109
0.08855445
0.08844747
0.088119
0.08760872
0.08693156
0.08609069
0.08508643
0.08391764
0.08260487
0.08112045
0.07928923
0.07768881
0.07650127
0.07586526
0.07585623
0.07648055
0.07767545
0.079309
0.08119468
0.0827766
0.08412819
0.08533547
0.08639581
0.08729751
0.08803332
0.08859547
0.08896588
0.08910078
0.08897478
0.08839193
0.08852205
0.08840847
0.08806959
0.08754444
0.08684716
0.08598001
0.08494235
0.08372864
0.08235053
0.08069785
0.07878957
0.07711451
0.07587257
0.0752072
0.07519637
0.0758461
0.07709145
0.07879638
0.0807567
0.08251686
0.08393643
0.08518574
0.08627929
0.08720749
0.0879638
0.08854116
0.08892223
0.08906381
0.08894091
0.08839294
0.08852302
0.0884094
0.08807047
0.08754526
0.08684791
0.08598068
0.08494295
0.0837292
0.08235109
0.08069846
0.07879022
0.07711525
0.0758734
0.07520814
0.07519742
0.07584726
0.0770927
0.07879771
0.08075813
0.08251809
0.08393767
0.08518706
0.08628068
0.08720896
0.08796531
0.0885427
0.08892377
0.08906532
0.08894235
0.0884241
0.08855733
0.08845024
0.08812163
0.08761116
0.08693379
0.08609269
0.08508822
0.08391932
0.08260652
0.08112222
0.07929115
0.07769099
0.07650374
0.07586805
0.07585933
0.07648395
0.07767914
0.07931291
0.08119886
0.08278025
0.0841319
0.08533939
0.08639993
0.0873018
0.08803774
0.08859996
0.08897036
0.08910515
0.0889789
0.08848356
0.088623
0.08852849
0.08821966
0.08773738
0.08709811
0.0863068
0.08536565
0.08427943
0.08307255
0.08177402
0.08021664
0.07877202
0.07769103
0.07711221
0.07710797
0.0776847
0.07878214
0.08027031
0.08190787
0.08326154
0.08450152
0.08563014
0.08662748
0.08747891
0.08817592
0.0887092
0.08905924
0.08918109
0.08904853
0.08856764
0.08871606
0.08863925
0.08835808
0.08791499
0.08732851
0.08660582
0.08575176
0.08477621
0.08370327
0.08259131
0.0814604
0.08022372
0.07929995
0.07880047
0.07880301
0.07931365
0.08026738
0.08156953
0.08275304
0.083907
0.08501306
0.08603498
0.08694518
0.08772717
0.08837033
0.08886346
0.08918514
0.0892889
0.08914752
0.08867212
0.08883137
0.08877606
0.08852827
0.08813218
0.08760852
0.08696692
0.08621493
0.0853657
0.08444223
0.08350132
0.08260407
0.08179837
0.08114801
0.08073132
0.08074146
0.08118451
0.08188832
0.08274243
0.08368405
0.08466212
0.08562234
0.08652068
0.08732919
0.08802926
0.08860844
0.08905362
0.08934116
0.08942297
0.08927087
0.08879163
0.08896298
0.08893157
0.08872051
0.08837562
0.08791972
0.08736465
0.08672011
0.08600063
0.08523043
0.08445315
0.08372797
0.08311332
0.08266372
0.08242742
0.08244928
0.08273008
0.08322682
0.08388665
0.08465325
0.08546811
0.08628068
0.08705181
0.08775305
0.08836558
0.08887576
0.08926869
0.08951871
0.08957613
0.0894118
0.08892071
0.08910486
0.08909835
0.088925
0.08863198
0.08824387
0.08777429
0.08723436
0.08663897
0.08601192
0.08538591
0.0848093
0.08433027
0.08399145
0.08382542
0.08385146
0.08406876
0.08445664
0.08498115
0.08560013
0.08626907
0.08694535
0.08759446
0.08819097
0.08871692
0.08915811
0.08949817
0.08970974
0.08974177
0.08956442
0.08905422
0.08925129
0.08926936
0.08913253
0.08888892
0.08856456
0.0881744
0.08773043
0.08724721
0.08674572
0.0862528
0.0858026
0.08543245
0.08517473
0.08505315
0.08508006
0.08525475
0.0855638
0.08598331
0.08648202
0.08702559
0.08758088
0.08811973
0.08862023
0.08906586
0.08944225
0.089732
0.08990639
0.08991339
0.08972287
0.08918737
0.08939689
0.08943797
0.08933456
0.08913544
0.08886784
0.08854788
0.08818802
0.08780182
0.08740674
0.08702454
0.08667918
0.08639827
0.08620576
0.08611889
0.08614668
0.08628885
0.08653603
0.08687094
0.08727058
0.08770925
0.08816166
0.08860549
0.08902241
0.08939742
0.08971627
0.08996073
0.09010104
0.09008453
0.0898813
0.08931525
0.08953597
0.08959717
0.0895224
0.08936104
0.08914158
0.08888115
0.08859232
0.08828715
0.08797966
0.08768643
0.08742526
0.08721541
0.08707463
0.08701547
0.08704458
0.0871619
0.08736076
0.08762867
0.08794888
0.08830247
0.08867047
0.08903554
0.08938264
0.08969837
0.08996869
0.09017472
0.09028568
0.09024847
0.09003375
0.08943148
0.08966077
0.08973739
0.08968487
0.08955352
0.08937314
0.08916151
0.08893067
0.08869092
0.08845316
0.08822973
0.08803389
0.08787899
0.08777815
0.08774051
0.08777095
0.08786953
0.08803147
0.08824776
0.08850625
0.08879309
0.08909416
0.08939617
0.08968699
0.08995486
0.09018623
0.09036175
0.09044963
0.09039622
0.09017255
0.08952552
0.08975791
0.08984245
0.08980435
0.0896951
0.0895453
0.08937242
0.08918735
0.08899849
0.08881416
0.08864357
0.08849652
0.08838264
0.08831146
0.08828984
0.0883214
0.08840622
0.08854088
0.08871882
0.08893111
0.08916754
0.0894175
0.08967081
0.08991774
0.09014823
0.09034969
0.09050289
0.09057544
0.09051299
0.09028563
0.08957748
0.08980182
0.08988279
0.08985033
0.08975605
0.08962937
0.08948614
0.08933556
0.08918431
0.08903883
0.08890613
0.08879368
0.08870875
0.08865842
0.08864803
0.08868036
0.08875554
0.08887102
0.08902186
0.08920131
0.08940156
0.08961439
0.08983178
0.09004585
0.09024811
0.09042741
0.09056585
0.09063196
0.09057162
0.09035133
0.0895505
0.08974496
0.08980682
0.08977136
0.08968578
0.08957531
0.08945294
0.08932605
0.08920002
0.08908008
0.0889719
0.0888816
0.08881508
0.08877794
0.08877459
0.08880731
0.08887625
0.0889794
0.08911278
0.08927094
0.08944748
0.08963567
0.08982876
0.09002011
0.09020251
0.09036646
0.09049665
0.09056542
0.09052279
0.09033087
0.08941655
0.08955178
0.08958434
0.08954147
0.08945952
0.08935799
0.08924708
0.08913281
0.08901982
0.08891274
0.08881667
0.08873713
0.08867951
0.08864871
0.0886486
0.08868127
0.08874686
0.08884362
0.08896802
0.0891152
0.08927943
0.08945459
0.08963459
0.08981338
0.08998451
0.09013983
0.09026678
0.09034316
0.0903294
0.09019562
0.1917751
0.1918697
0.191871
0.1917663
0.1915838
0.1913487
0.191079
0.1907887
0.1904908
0.1901997
0.1899315
0.189704
0.1895345
0.1894391
0.18943
0.1895139
0.1896916
0.1899578
0.1903014
0.1907071
0.191157
0.1916318
0.1921125
0.192581
0.1930193
0.1934079
0.1937228
0.1939322
0.1940018
0.1939399
0.1918565
0.1920121
0.1920547
0.1919617
0.191769
0.1915097
0.1912071
0.1908784
0.1905391
0.1902058
0.189897
0.1896329
0.1894331
0.189316
0.1892953
0.1893788
0.1895672
0.1898542
0.1902273
0.1906692
0.1911594
0.1916763
0.1921985
0.1927056
0.1931771
0.1935901
0.1939153
0.1941129
0.1941407
0.1940168
0.1918346
0.1920315
0.1921035
0.1920104
0.1917902
0.1914825
0.1911163
0.1907134
0.1902935
0.1898773
0.1894882
0.1891509
0.1888904
0.1887295
0.1886852
0.1887671
0.1889758
0.1893035
0.1897345
0.1902469
0.1908154
0.1914134
0.192015
0.1925951
0.1931294
0.1935904
0.1939427
0.1941405
0.1941387
0.1939729
0.1916988
0.1919074
0.1919795
0.1918618
0.1915905
0.1912078
0.1907467
0.1902333
0.1896923
0.1891508
0.1886388
0.1881893
0.1878349
0.187606
0.1875249
0.1876039
0.1878438
0.1882338
0.1887531
0.1893729
0.1900601
0.1907801
0.1914997
0.1921882
0.1928157
0.1933506
0.1937537
0.1939761
0.1939746
0.1937969
0.1914787
0.1916773
0.1917223
0.1915539
0.1912055
0.1907193
0.1901299
0.1894674
0.1887621
0.1880487
0.1873671
0.1867613
0.1862757
0.1859514
0.1858186
0.1858934
0.1861768
0.186654
0.1872966
0.1880657
0.1889166
0.1898036
0.1906837
0.1915183
0.1922721
0.1929095
0.1933894
0.193663
0.1936891
0.1935216
0.1912009
0.1913754
0.1913726
0.19113
0.1906787
0.1900592
0.1893069
0.1884544
0.187538
0.1866016
0.185698
0.1848862
0.1842269
0.1837761
0.1835744
0.183644
0.1839856
0.184579
0.1853852
0.1863511
0.1874165
0.1885205
0.1896074
0.1906291
0.1915443
0.1923144
0.1928976
0.193246
0.1933205
0.1931775
0.1908844
0.1910262
0.1909605
0.1906241
0.1900459
0.1892644
0.188314
0.1872295
0.1860529
0.1848389
0.183656
0.182583
0.1817023
0.1810898
0.1808003
0.1808636
0.1812806
0.1820233
0.1830387
0.1842547
0.1855905
0.1869656
0.1883086
0.1895602
0.1906727
0.1916053
0.1923162
0.1927593
0.1928976
0.1927879
0.190544
0.1906477
0.1905088
0.1900636
0.1893384
0.1883688
0.1871877
0.1858307
0.1843452
0.1827979
0.1812759
0.1798829
0.1787296
0.1779168
0.1775184
0.1775747
0.1780865
0.1790157
0.1802901
0.1818133
0.183478
0.1851797
0.1868278
0.1883509
0.1896948
0.1908167
0.1916762
0.1922296
0.1924423
0.1923716
0.1901934
0.1902562
0.190038
0.189474
0.1885871
0.1874095
0.1859709
0.1843069
0.1824695
0.1805374
0.178619
0.1768479
0.1753691
0.1743139
0.1737822
0.17383
0.1744589
0.1756157
0.1772023
0.1790905
0.1811409
0.1832204
0.1852177
0.1870479
0.1886511
0.1899834
0.1910067
0.191681
0.1919745
0.1919459
0.1898475
0.1898686
0.1895692
0.1888823
0.1878271
0.1864307
0.1847188
0.1827251
0.1805054
0.1781492
0.1757881
0.1735865
0.1717259
0.1703764
0.1696764
0.1697123
0.1704879
0.1719232
0.1738807
0.1761899
0.1786744
0.1811717
0.1835493
0.1857102
0.1875894
0.1891437
0.1903383
0.1911379
0.1915146
0.1915288
0.1895225
0.1895036
0.1891255
0.1883189
0.1870982
0.1854848
0.1834994
0.1811724
0.178561
0.175764
0.1729325
0.1702557
0.1679409
0.1662149
0.1652876
0.1653069
0.1662809
0.1680764
0.1704808
0.1732611
0.1762114
0.1791458
0.1819141
0.1844101
0.1865663
0.1883411
0.1897046
0.1906266
0.1910841
0.1911395
0.1892354
0.1891805
0.1887314
0.1878159
0.1864437
0.1846303
0.1823906
0.1797508
0.1767672
0.1735443
0.1702386
0.1670352
0.1641356
0.161905
0.160725
0.1607257
0.1619179
0.1641898
0.1671819
0.170493
0.1739184
0.1772782
0.1804188
0.18323
0.185644
0.1876226
0.189141
0.1901746
0.1907051
0.1907976
0.1890027
0.1889184
0.1884107
0.187405
0.1859067
0.1839259
0.1814721
0.178567
0.1752634
0.1716651
0.16791
0.1641287
0.1606813
0.1581337
0.1567749
0.1567606
0.1581037
0.1606709
0.1641845
0.1680919
0.1719751
0.1757134
0.1791746
0.1822536
0.184885
0.1870345
0.1886821
0.1898083
0.1903991
0.1905219
0.1888396
0.1887341
0.1881846
0.1871143
0.1855253
0.1834239
0.1808152
0.1777171
0.1741778
0.1702939
0.1661753
0.1618999
0.1581419
0.1553635
0.1538779
0.153853
0.1553031
0.1580852
0.1619006
0.166295
0.1705557
0.1745845
0.1782822
0.1815562
0.184345
0.1866178
0.1883582
0.1895509
0.1901846
0.1903288
0.1887565
0.18864
0.1880686
0.1869645
0.185328
0.1831633
0.1804733
0.1772735
0.1736084
0.1695672
0.165237
0.1607255
0.1567997
0.1539002
0.1523485
0.1523184
0.1538246
0.1567198
0.1606985
0.1653278
0.1698053
0.1739938
0.1778176
0.1811942
0.1840658
0.1864032
0.1881923
0.1894196
0.1900757
0.1902311
0.1887593
0.1886427
0.1880712
0.1869669
0.1853303
0.1831653
0.1804751
0.1772751
0.1736099
0.1695686
0.1652384
0.160727
0.1568013
0.1539021
0.1523506
0.1523207
0.1538273
0.1567227
0.1607016
0.1653309
0.1698085
0.1739971
0.177821
0.1811978
0.1840696
0.1864071
0.1881963
0.1894236
0.1900797
0.190235
0.1888477
0.188742
0.1881922
0.1871214
0.1855319
0.1834299
0.1808206
0.1777219
0.1741821
0.1702981
0.1661794
0.1619043
0.1581467
0.155369
0.1538841
0.15386
0.1553108
0.1580936
0.1619096
0.1663042
0.170565
0.1745942
0.1782925
0.1815669
0.1843562
0.1866293
0.18837
0.1895627
0.1901962
0.1903402
0.189016
0.1889313
0.188423
0.1874166
0.1859174
0.1839358
0.181481
0.1785749
0.1752706
0.1716719
0.1679167
0.1641358
0.1606891
0.1581425
0.1567849
0.1567718
0.158116
0.1606842
0.1641987
0.1681062
0.1719899
0.175729
0.1791911
0.1822709
0.184903
0.1870531
0.188701
0.1898274
0.1904179
0.1905402
0.1892529
0.1891977
0.188748
0.1878316
0.1864583
0.1846438
0.1824028
0.1797617
0.1767772
0.1735536
0.1702478
0.1670446
0.1641461
0.1619167
0.160738
0.1607402
0.1619339
0.1642072
0.1671996
0.1705115
0.173938
0.177299
0.1804409
0.1832532
0.1856682
0.1876476
0.1891665
0.1902004
0.1907307
0.1908226
0.1895438
0.1895245
0.1891458
0.1883382
0.1871163
0.1855015
0.1835146
0.1811862
0.1785735
0.1757756
0.1729437
0.1702671
0.1679531
0.1662285
0.1653027
0.1653236
0.1662991
0.1680957
0.1705012
0.173283
0.1762348
0.1791709
0.1819408
0.1844384
0.1865959
0.1883718
0.189736
0.1906585
0.1911159
0.1911711
0.1898718
0.1898925
0.1895924
0.1889045
0.1878481
0.1864502
0.1847367
0.1827415
0.1805203
0.178163
0.1758013
0.1735996
0.1717394
0.1703909
0.1696922
0.1697297
0.1705068
0.1719438
0.1739029
0.176214
0.1787005
0.1812
0.1835796
0.1857424
0.1876232
0.1891788
0.1903745
0.1911747
0.1915517
0.1915658
0.1902196
0.190282
0.1900632
0.1894982
0.1886102
0.1874312
0.1859911
0.1843254
0.1824865
0.1805532
0.1786339
0.1768623
0.1753836
0.1743291
0.1737984
0.1738476
0.1744781
0.1756368
0.1772255
0.1791161
0.1811688
0.1832509
0.1852505
0.1870829
0.188688
0.1900219
0.1910465
0.1917217
0.1920157
0.1919871
0.1905709
0.1906743
0.1905349
0.190089
0.1893627
0.188392
0.1872095
0.185851
0.184364
0.1828153
0.1812922
0.1798984
0.1787448
0.1779323
0.1775347
0.1775922
0.1781056
0.1790368
0.1803135
0.1818394
0.1835068
0.1852112
0.186862
0.1883876
0.1897338
0.1908576
0.1917186
0.1922732
0.1924865
0.192416
0.190911
0.1910526
0.1909865
0.1906496
0.1900707
0.1892883
0.1883369
0.1872511
0.186073
0.1848575
0.1836734
0.1825993
0.181718
0.1811054
0.1808164
0.1808808
0.1812992
0.182044
0.1830617
0.1842804
0.1856191
0.1869973
0.1883432
0.1895976
0.1907128
0.1916475
0.1923603
0.1928047
0.1929438
0.1928345
0.1912262
0.1914006
0.1913976
0.1911548
0.1907031
0.1900832
0.18933
0.1884765
0.1875588
0.186621
0.185716
0.184903
0.1842428
0.1837916
0.1835901
0.1836604
0.1840034
0.1845986
0.1854071
0.1863758
0.1874442
0.1885514
0.1896416
0.1906664
0.1915845
0.1923572
0.1929425
0.1932925
0.193368
0.1932253
0.1915019
0.1917005
0.1917456
0.1915774
0.1912291
0.1907427
0.1901529
0.1894896
0.1887832
0.1880684
0.1873853
0.1867782
0.1862915
0.1859665
0.1858335
0.1859088
0.1861933
0.1866723
0.1873171
0.1880889
0.1889429
0.1898332
0.1907168
0.1915548
0.1923118
0.1929521
0.1934345
0.1937099
0.193737
0.19357
0.1917195
0.1919283
0.1920008
0.1918837
0.1916129
0.1912304
0.1907691
0.1902551
0.1897132
0.1891704
0.1886569
0.1882059
0.1878502
0.1876204
0.1875389
0.1876181
0.1878588
0.1882503
0.1887718
0.1893943
0.1900846
0.1908081
0.1915314
0.1922235
0.1928546
0.1933926
0.1937983
0.1940228
0.1940225
0.1938454
0.191853
0.1920502
0.1921229
0.1920306
0.1918113
0.1915041
0.1911381
0.1907348
0.190314
0.1898966
0.1895059
0.189167
0.188905
0.1887429
0.188698
0.1887799
0.1889893
0.1893184
0.1897513
0.1902664
0.1908381
0.1914397
0.192045
0.192629
0.1931671
0.1936314
0.1939867
0.1941866
0.1941863
0.1940211
0.191873
0.192029
0.1920725
0.1919807
0.1917891
0.1915306
0.1912284
0.1908994
0.1905592
0.1902246
0.1899142
0.1896483
0.189447
0.1893286
0.1893071
0.1893904
0.1895793
0.1898675
0.1902426
0.1906871
0.1911805
0.191701
0.1922272
0.1927383
0.1932136
0.1936302
0.1939584
0.1941584
0.1941877