/*--------------------------------*- C++ -*----------------------------------*\
| =========                 |                                                 |
| \\      /  F ield         | OpenFOAM: The Open Source CFD Toolbox           |
|  \\    /   O peration     | Version:  2506                                  |
|   \\  /    A nd           | Website:  www.openfoam.com                      |
|    \\/     M anipulation  |                                                 |
\*---------------------------------------------------------------------------*/
FoamFile
{
    version     2.0;
    format      ascii;
    arch        "LSB;label=32;scalar=64";
    class       volScalarField;
    location    "400/airRegion";
    object      alphat;
}
// * * * * * * * * * * * * * * * * * * * * * * * * * * * * * * * * * * * * * //

dimensions      [1 -1 -1 0 0 0 0];

internalField   nonuniform List<scalar> 
85779
(
0.1066848
0.1071219
0.1068976
0.1066389
0.106359
0.1058598
0.1044952
0.1000478
0.0868434
0.07925486
0.07699898
0.07768205
0.08050776
0.08529825
0.09123149
0.09637891
0.09797514
0.09302858
0.08388428
0.07633241
0.07402913
0.07838619
0.09259768
0.1025401
0.1051014
0.1056319
0.1052037
0.1022604
0.08605816
0.02337742
0.1068067
0.1073913
0.1069683
0.106372
0.1056799
0.1045375
0.1018715
0.09526616
0.08602794
0.08112821
0.07919059
0.07946513
0.08180344
0.08609814
0.09154842
0.09633082
0.09783382
0.09316638
0.08428537
0.07695193
0.07480393
0.07838353
0.08711408
0.09846917
0.1025013
0.1033769
0.1025132
0.09805922
0.07987728
0.02196006
0.106602
0.1068774
0.1062043
0.1053616
0.1043908
0.102783
0.09894495
0.0911337
0.08581489
0.08253728
0.08101102
0.08116344
0.08311144
0.08680599
0.09153612
0.09568922
0.09693038
0.09253151
0.08386606
0.07645946
0.07385684
0.076352
0.08330772
0.09569585
0.100129
0.101109
0.1002956
0.09618569
0.07960515
0.02220003
0.1065501
0.1066063
0.1057343
0.1047101
0.1035183
0.1014377
0.09647773
0.08863942
0.08468668
0.08252608
0.08162794
0.08199801
0.08381007
0.08704206
0.09107712
0.09453384
0.09540622
0.09117019
0.08256365
0.07487357
0.07174336
0.07363419
0.08037999
0.09415284
0.09876724
0.09984339
0.09925816
0.09576619
0.0805341
0.02239696
0.1065694
0.1065279
0.1055387
0.104392
0.1030298
0.1004861
0.09415835
0.08716666
0.08362741
0.08199354
0.08153071
0.08213623
0.08390834
0.0867779
0.0901691
0.09290019
0.09331303
0.08914612
0.08055063
0.07263188
0.06927691
0.07116792
0.07838609
0.09333141
0.09811068
0.09930413
0.09894482
0.09591927
0.08147965
0.02253508
0.1066013
0.1065225
0.1054697
0.1042435
0.1027586
0.1000393
0.09370629
0.08559569
0.08254179
0.08134357
0.0811936
0.08195345
0.08365591
0.08616433
0.08890073
0.09084459
0.09069814
0.08653641
0.07801276
0.07006909
0.06685101
0.0691305
0.07700618
0.09286354
0.09781341
0.09912539
0.09893673
0.09617911
0.08194656
0.02263281
0.1066265
0.106533
0.1054429
0.1041558
0.1025362
0.09931775
0.09129245
0.08488884
0.08218895
0.08115721
0.0810688
0.0817897
0.08329772
0.08536819
0.0873783
0.0884344
0.08761705
0.08341576
0.07508061
0.06735352
0.06456586
0.06742902
0.07596597
0.09255598
0.09767378
0.099093
0.09902668
0.09642978
0.08227456
0.02269959
0.1066422
0.1065409
0.105426
0.1040876
0.1023186
0.09855052
0.08985956
0.08504974
0.08256033
0.08139576
0.08114466
0.08168382
0.08290918
0.08447663
0.08568265
0.0857434
0.08414935
0.07987697
0.07185679
0.0645667
0.06241814
0.06594837
0.07510134
0.09231564
0.09759298
0.09910556
0.09912734
0.096631
0.08250832
0.02274488
0.1066501
0.1065431
0.1054115
0.1040402
0.1021894
0.09816733
0.08888177
0.08452846
0.0823382
0.08128335
0.08103267
0.08147804
0.08246093
0.08352805
0.08389043
0.08288136
0.08043952
0.07607885
0.06847336
0.06178275
0.06039869
0.06461461
0.07432853
0.09209798
0.0975269
0.09912114
0.09920841
0.09677769
0.08266947
0.02277523
0.1066529
0.1065408
0.1053971
0.1040038
0.1021074
0.09797768
0.08838564
0.08405977
0.08198528
0.08102529
0.08081597
0.08121679
0.08199963
0.08259606
0.0821265
0.08004652
0.07675302
0.07229913
0.06514472
0.05911755
0.0585266
0.06339616
0.07361474
0.09188684
0.09745889
0.09912567
0.09926369
0.09687766
0.08277653
0.02279508
0.1066529
0.1065358
0.1053818
0.1039684
0.102029
0.09781881
0.0880801
0.08374262
0.0817158
0.08080958
0.0806272
0.08099003
0.08160142
0.08178607
0.08058103
0.07755321
0.07350123
0.06895049
0.062189
0.05674733
0.05685532
0.06229088
0.07295161
0.09165784
0.09738102
0.0991163
0.09929584
0.09694161
0.08284473
0.02280766
0.1066517
0.1065295
0.1053644
0.1039211
0.1018921
0.09748679
0.08781525
0.0835653
0.08159162
0.08071554
0.0805352
0.08085197
0.08132343
0.08120087
0.07946548
0.07576103
0.07115125
0.0665049
0.05999212
0.05489881
0.05547036
0.06131058
0.07232147
0.09141907
0.0972916
0.09909378
0.09930967
0.09697934
0.08288589
0.02281525
0.1066504
0.1065232
0.105344
0.1038462
0.1016133
0.09674527
0.08786404
0.08370247
0.08168946
0.08077376
0.08055165
0.08080966
0.08118474
0.08090033
0.07891983
0.07491955
0.07006011
0.06536766
0.05892681
0.05381928
0.05449042
0.0604863
0.07168171
0.09111874
0.09716899
0.09905463
0.09930891
0.09699854
0.08290877
0.02281951
0.1066495
0.1065187
0.10533
0.1038112
0.1015589
0.09682285
0.08763424
0.08368201
0.08175365
0.08084158
0.08059247
0.08081543
0.08116732
0.08090123
0.07900995
0.07516267
0.07044399
0.06580634
0.05926278
0.0537363
0.05408338
0.05992149
0.07097087
0.09050166
0.09693111
0.09898425
0.09929491
0.09700472
0.08291959
0.02282163
0.1066491
0.1065166
0.105323
0.1037897
0.1014988
0.09670268
0.08757245
0.08370039
0.08179342
0.08087344
0.0806094
0.08083372
0.08125214
0.08120493
0.07976901
0.07656307
0.07239473
0.06789545
0.06105156
0.05474897
0.05442748
0.05992119
0.07042167
0.08885453
0.09642439
0.09886641
0.0992699
0.09700213
0.08292242
0.02282234
0.1066495
0.1065174
0.1053241
0.1037826
0.1014127
0.0962492
0.08769639
0.08375058
0.0817879
0.0808488
0.08058632
0.08085144
0.08141969
0.08176388
0.08108997
0.07892467
0.07562738
0.07132804
0.06398992
0.05659361
0.05522376
0.06016468
0.07020143
0.08549846
0.09588952
0.09878194
0.09925166
0.09699595
0.0829195
0.02282195
0.1066505
0.1065211
0.1053346
0.1038163
0.1014304
0.09564385
0.08780127
0.08370411
0.0817126
0.08077723
0.08053792
0.08087491
0.08164267
0.08245931
0.08267154
0.0817085
0.07943294
0.07538346
0.06743405
0.05884133
0.05626767
0.06055001
0.07033553
0.08710939
0.09607443
0.09879945
0.09924899
0.09698786
0.08291109
0.02282046
0.1066521
0.1065268
0.1053511
0.1038769
0.1017637
0.09720896
0.08777917
0.08366144
0.08166674
0.08072671
0.08051073
0.08092986
0.08191055
0.08320087
0.08426971
0.08446018
0.08318912
0.07941437
0.0708529
0.06112151
0.05739415
0.06111499
0.07096477
0.0867778
0.09629171
0.09886714
0.0992564
0.0969757
0.08289538
0.02281755
0.106654
0.106534
0.1053713
0.1039362
0.1019446
0.09765145
0.08789369
0.08362262
0.08161856
0.08070366
0.08052987
0.08103846
0.08222625
0.08395225
0.08578031
0.08697838
0.08659307
0.08306479
0.07397035
0.0633159
0.058618
0.06177564
0.0717327
0.09050319
0.09696887
0.09898427
0.0992652
0.09695402
0.0828685
0.02281256
0.1066555
0.1065407
0.1053891
0.1039801
0.1020521
0.09786751
0.08816455
0.08382981
0.08177112
0.08082527
0.08065414
0.08122736
0.0825987
0.08471167
0.08719365
0.08923832
0.08958503
0.08623268
0.07671427
0.06545373
0.06011462
0.0628384
0.07263476
0.09132526
0.09722062
0.09904065
0.0992556
0.09691436
0.08282434
0.02280443
0.1066556
0.1065459
0.1054048
0.1040163
0.1021306
0.09802451
0.08850801
0.08418192
0.08205342
0.0810405
0.08084549
0.08146922
0.08301146
0.08547771
0.08853092
0.09128415
0.09221217
0.08894027
0.07908361
0.06747721
0.06172261
0.06401225
0.07342562
0.09166284
0.09733945
0.09906042
0.09922438
0.0968489
0.08275431
0.02279156
0.1066526
0.1065481
0.1054195
0.1040545
0.1022182
0.0982301
0.0890442
0.08465573
0.08235685
0.08122914
0.08100708
0.08169757
0.08342545
0.0862377
0.08981023
0.09316635
0.09454337
0.09125054
0.08112167
0.06937069
0.06336746
0.06523931
0.0741939
0.09193178
0.0974255
0.09906043
0.09916956
0.09674835
0.08264679
0.0227717
0.1066445
0.1065456
0.1054339
0.1041028
0.102348
0.0985963
0.08994127
0.08512405
0.08248237
0.08123963
0.08104546
0.08185772
0.08380845
0.0869767
0.0910378
0.09491667
0.09663061
0.09322472
0.0828913
0.07116701
0.06505511
0.06654279
0.07500357
0.09219476
0.0975061
0.09904932
0.09908986
0.09660226
0.0824865
0.02274159
0.1066285
0.1065369
0.1054496
0.1041676
0.1025459
0.09923724
0.09113541
0.08522459
0.08231518
0.08112903
0.08104839
0.08200607
0.0841789
0.08769071
0.0922071
0.09654054
0.09849572
0.09490301
0.08444946
0.07291646
0.06683043
0.06797836
0.07590989
0.0924649
0.09760022
0.09904237
0.09899176
0.09640274
0.08225467
0.02269675
0.1066028
0.1065256
0.1054749
0.1042526
0.1027737
0.1000485
0.09366278
0.08573275
0.08265791
0.08140291
0.0812744
0.0822474
0.08455409
0.08835539
0.09328392
0.09801206
0.1001278
0.0962958
0.0858239
0.07465406
0.0687513
0.06963277
0.07699498
0.09280054
0.09775394
0.09908162
0.09890535
0.09615444
0.08192876
0.02263056
0.1065705
0.1065302
0.1055425
0.1043987
0.1030443
0.100515
0.09416435
0.08730799
0.08373835
0.0820843
0.08166667
0.08248548
0.08482469
0.08886904
0.09418665
0.09927229
0.1014865
0.09737827
0.08698697
0.0763552
0.07084923
0.07162651
0.0784185
0.09329486
0.09806558
0.09926795
0.09891756
0.09589674
0.08145844
0.02253354
0.1065508
0.1066079
0.1057371
0.1047158
0.1035363
0.1014156
0.09584563
0.08892043
0.08468095
0.08253556
0.08174506
0.08235952
0.08472978
0.08905248
0.0947968
0.1002418
0.1025124
0.09808952
0.08782982
0.07787122
0.07303652
0.07405383
0.08045014
0.09413978
0.09873598
0.09981516
0.09923557
0.09574684
0.08051531
0.02239601
0.1066024
0.1068785
0.1062064
0.1053662
0.1044072
0.1028569
0.09923942
0.09132096
0.08517633
0.08224829
0.08102658
0.08149812
0.08402139
0.0887526
0.09501752
0.1008512
0.103147
0.09834975
0.08816427
0.07886672
0.07492463
0.07674027
0.08340627
0.09570152
0.1001105
0.101089
0.1002784
0.09617053
0.07959157
0.02219954
0.1068069
0.1073919
0.1069697
0.1063751
0.1056884
0.1045658
0.1019684
0.09551856
0.08593045
0.08125351
0.07936637
0.07983314
0.08271379
0.08800122
0.09485012
0.1010673
0.1033488
0.09811278
0.08782336
0.0789011
0.07570217
0.07875399
0.08723189
0.0984869
0.1024937
0.1033658
0.1025027
0.09804934
0.07986844
0.02195987
0.1066848
0.107122
0.106898
0.1066399
0.1063618
0.105864
0.1044725
0.0997516
0.08610572
0.0797893
0.07748957
0.07813834
0.08142522
0.08717077
0.09441707
0.1008462
0.1030431
0.09742662
0.0869348
0.0779825
0.07481482
0.07874288
0.0926966
0.1025538
0.1051011
0.1056292
0.1052007
0.1022573
0.08605502
0.0233774
0.1068067
0.1073913
0.1069683
0.1063717
0.1056779
0.1045246
0.1017239
0.09438935
0.08618971
0.08124536
0.07925884
0.07950466
0.08183872
0.08615662
0.09165872
0.09651054
0.09806817
0.09340412
0.08447515
0.07707156
0.07486409
0.07840782
0.08712096
0.09847033
0.1025019
0.1033772
0.1025134
0.09805947
0.07987773
0.02196012
0.1061581
0.1077704
0.1081784
0.107534
0.1062182
0.1040438
0.1001831
0.09411138
0.08789247
0.08357854
0.08139364
0.08121871
0.08309235
0.08691955
0.0919322
0.09640692
0.09785832
0.09347402
0.08482838
0.07759013
0.07544371
0.07864741
0.08569002
0.09365394
0.09809373
0.09896057
0.09636674
0.08744097
0.06363992
0.01661875
0.1052798
0.1062965
0.106859
0.1063326
0.1048839
0.1024285
0.09837931
0.09346822
0.08878961
0.08528648
0.08327612
0.08291761
0.08437009
0.08757499
0.09185091
0.09567781
0.09684855
0.09274535
0.08440992
0.07720775
0.07473887
0.07714237
0.08280492
0.0894297
0.09343194
0.09402046
0.09087064
0.08137193
0.05856692
0.0159441
0.1049181
0.1052536
0.1053743
0.1045769
0.1029038
0.1002763
0.09630567
0.09197537
0.08828937
0.08558855
0.08402863
0.08378755
0.08504394
0.08775139
0.09130892
0.0944139
0.09519059
0.09126297
0.08309869
0.07572601
0.07276422
0.07444877
0.07935275
0.08558873
0.08948982
0.09021293
0.08751245
0.07911361
0.05823416
0.01636497
0.1048302
0.1048177
0.1045507
0.1034197
0.1014648
0.09859048
0.09466917
0.09053621
0.08730577
0.08510651
0.08394081
0.0838967
0.08508365
0.08740729
0.09029755
0.09264289
0.09292565
0.08906978
0.08100468
0.07344847
0.07016573
0.07157397
0.07642005
0.08295662
0.08711752
0.088254
0.08629114
0.07910228
0.05954
0.01679094
0.1048337
0.1046836
0.1041928
0.1028199
0.100622
0.09746559
0.09325878
0.0891945
0.0862546
0.08439085
0.08350596
0.08360906
0.08472674
0.08668389
0.08889422
0.09040589
0.0900848
0.08622846
0.07829806
0.07071739
0.06744887
0.06903356
0.07426678
0.08139071
0.08596581
0.0875643
0.08623886
0.07989216
0.06095293
0.01709176
0.1048545
0.1046544
0.1040442
0.1025137
0.1001219
0.09666929
0.09232729
0.08839359
0.08563444
0.08392693
0.08314561
0.08325984
0.08421983
0.08574631
0.08719493
0.08775207
0.08670563
0.08280636
0.07511985
0.06775247
0.06483485
0.06690619
0.07271638
0.08047515
0.08546926
0.08746872
0.08660706
0.08078586
0.06211775
0.01729356
0.1048705
0.1046492
0.1039713
0.1023365
0.09979517
0.09606485
0.09175484
0.08808137
0.08542052
0.08372709
0.08291932
0.08294513
0.08367295
0.08469461
0.08527449
0.08473714
0.08285136
0.07889406
0.07158912
0.06467702
0.06237899
0.06510744
0.07153741
0.07988502
0.08524759
0.08756755
0.0870294
0.08153338
0.0629825
0.01742756
0.1048781
0.1046434
0.1039244
0.102225
0.09958726
0.09566293
0.09117826
0.08759956
0.08505933
0.08344077
0.08265097
0.08260977
0.08310372
0.0835842
0.08320768
0.08146079
0.07866213
0.07465925
0.06785753
0.06159159
0.06008777
0.06354099
0.07056667
0.07942273
0.08510649
0.08768172
0.0873726
0.08208472
0.06358834
0.01751584
0.104879
0.1046322
0.1038854
0.1021449
0.09945053
0.09540907
0.09079066
0.0871946
0.08470204
0.08313899
0.08237534
0.08228371
0.08255695
0.08249307
0.08112979
0.07814242
0.07443641
0.07041522
0.06417049
0.0586345
0.05798002
0.06214255
0.06971054
0.07901158
0.08497067
0.08775082
0.08760952
0.0824618
0.06399657
0.01757293
0.1048759
0.1046165
0.1038469
0.1020741
0.09933908
0.09521592
0.09052524
0.08691037
0.08443877
0.08290778
0.08215836
0.08201874
0.08209362
0.08153783
0.07928021
0.07518448
0.0706828
0.0666466
0.06089386
0.05600808
0.05610728
0.06087923
0.06890203
0.07857857
0.0848173
0.08776538
0.08775215
0.08270383
0.0642617
0.01760878
0.104871
0.1045983
0.1038061
0.1019982
0.0992171
0.09502684
0.09033986
0.0867468
0.08429899
0.08278484
0.08203295
0.08184428
0.08176287
0.08084507
0.077949
0.0730727
0.06798609
0.06390075
0.0584648
0.05396873
0.05456682
0.05977369
0.06814516
0.07813942
0.08463657
0.08773076
0.0878217
0.0828478
0.06442602
0.01763026
0.1048659
0.1045802
0.103764
0.1019155
0.09909794
0.09497713
0.09035704
0.08676784
0.08430759
0.08277576
0.0819963
0.08175848
0.08158202
0.0804865
0.07730742
0.07209864
0.06674856
0.06262315
0.05729199
0.05278691
0.05348997
0.05888024
0.06744376
0.07766834
0.08440957
0.0876511
0.08783725
0.08292311
0.06452059
0.01764228
0.1048621
0.1045667
0.1037324
0.1018543
0.0989994
0.0948397
0.09028694
0.08676667
0.08433004
0.08279199
0.08199051
0.08172674
0.08154061
0.08048485
0.07742452
0.07239729
0.06719831
0.06310212
0.05766423
0.05270118
0.05304022
0.05831325
0.06684321
0.07711292
0.08410018
0.08752546
0.0878135
0.08295149
0.06456723
0.01764818
0.1048606
0.1045607
0.1037174
0.1018238
0.09895065
0.09478858
0.09026911
0.08677365
0.08434147
0.08279432
0.08198046
0.08172541
0.08163047
0.08085776
0.0783678
0.07409434
0.06947405
0.06543733
0.05963907
0.05380848
0.05334554
0.0582571
0.06657425
0.0765845
0.08371674
0.08736937
0.08776706
0.08294944
0.06458076
0.01765005
0.1048616
0.1045633
0.1037221
0.1018297
0.09895609
0.09482643
0.09030258
0.08677852
0.08432835
0.08277057
0.08195757
0.08174764
0.08183505
0.08155566
0.08002823
0.07699875
0.07329599
0.06933569
0.0629274
0.05589599
0.05422809
0.05850687
0.06651249
0.0762345
0.08346948
0.08727118
0.08772838
0.08293111
0.06457063
0.01764891
0.1048649
0.1045741
0.1037458
0.1018741
0.09900389
0.09488669
0.09031017
0.08675649
0.08429416
0.08273307
0.08193508
0.08179641
0.0821126
0.08240765
0.08197311
0.08037054
0.07776393
0.07395426
0.06681939
0.05851705
0.05549663
0.0590116
0.06671104
0.07635621
0.08353258
0.08727859
0.08771117
0.08290071
0.06453824
0.01764474
0.1048701
0.1045907
0.1037817
0.1019451
0.09913667
0.09498664
0.09036505
0.0867818
0.08429488
0.08272451
0.08194478
0.08188666
0.08243622
0.08328013
0.08385521
0.0835816
0.08206191
0.07849067
0.0706762
0.06120681
0.05692171
0.0596907
0.06716948
0.07681059
0.08380641
0.08737013
0.08770709
0.0828511
0.06447694
0.01763661
0.1048762
0.104611
0.1038259
0.1020262
0.0992565
0.09509604
0.0904069
0.08680005
0.08431664
0.08275892
0.08200905
0.08203463
0.08280201
0.08412813
0.08555911
0.08641085
0.08585039
0.08253433
0.07415953
0.06376423
0.05845716
0.06054452
0.06777182
0.07748099
0.0842141
0.08749423
0.08768947
0.08276368
0.0643716
0.01762258
0.1048818
0.1046305
0.1038683
0.1021028
0.09937575
0.09527923
0.09060698
0.08698632
0.08448134
0.08290798
0.08216665
0.08225953
0.08321845
0.08495833
0.08709959
0.08887216
0.08910349
0.08599354
0.07717855
0.06615725
0.06016137
0.06170564
0.06862178
0.07811202
0.08450861
0.08756138
0.08762014
0.08261117
0.06419893
0.01759957
0.1048851
0.1046468
0.1039081
0.1021764
0.09949385
0.09548614
0.0908979
0.08729361
0.08475816
0.0831489
0.08239968
0.08254831
0.08368078
0.08578486
0.0885262
0.09105229
0.09191233
0.08892115
0.07975245
0.06836024
0.06193869
0.06301151
0.06951755
0.07863297
0.08470581
0.08755913
0.08747577
0.08236312
0.06392811
0.01756287
0.1048841
0.1046581
0.1039482
0.1022603
0.09964001
0.09575972
0.09130608
0.08769621
0.08508844
0.08341849
0.08265609
0.0828644
0.08416939
0.08661169
0.08987925
0.09303275
0.0943794
0.09140748
0.08194898
0.07039219
0.06374835
0.06441114
0.07045659
0.07912871
0.08485803
0.08749484
0.08723816
0.08198341
0.06351739
0.01750564
0.1048761
0.1046632
0.103995
0.1023737
0.09985166
0.09616365
0.09186096
0.08813398
0.08538895
0.0836506
0.08289189
0.08317892
0.08466575
0.08743402
0.09117792
0.09486363
0.09657724
0.093531
0.08384684
0.07230734
0.06561398
0.06593278
0.07149107
0.07966334
0.08501554
0.08738816
0.0868981
0.08143345
0.06291243
0.01741793
0.1048593
0.1046667
0.1040653
0.1025468
0.1001708
0.09674526
0.0924743
0.08853258
0.08568293
0.08391478
0.08316786
0.08352207
0.08517242
0.08824189
0.09241777
0.09655832
0.09853769
0.09533912
0.08550782
0.07416303
0.06759017
0.06764888
0.07270394
0.08030384
0.08526496
0.08730338
0.0864833
0.08069093
0.0620515
0.01728505
0.1048375
0.1046936
0.10421
0.1028466
0.1006624
0.0975342
0.0933521
0.08931088
0.08634179
0.08444723
0.08359951
0.08392398
0.08566868
0.08899384
0.09355966
0.0980925
0.1002529
0.09684155
0.08695337
0.07598436
0.06973327
0.06968385
0.07428586
0.08127181
0.0857949
0.08741746
0.0861257
0.07980454
0.06089232
0.01708474
0.1048332
0.1048256
0.1045643
0.1034409
0.1014982
0.09864899
0.09475464
0.09064846
0.08740518
0.08519439
0.08407755
0.08425062
0.08602137
0.08957603
0.09451785
0.09940718
0.1016828
0.09800839
0.08814024
0.07771189
0.07202515
0.07213393
0.07646591
0.08288018
0.08698017
0.08812764
0.08619016
0.07902264
0.05948412
0.01678555
0.1049202
0.1052596
0.1053852
0.1045953
0.1029351
0.1003166
0.09640362
0.09207634
0.08834991
0.08565362
0.08416424
0.08415158
0.08597089
0.08980922
0.09517449
0.1004242
0.1027682
0.09877486
0.0889448
0.07914687
0.0742634
0.0749283
0.07941941
0.08554385
0.08938462
0.09010893
0.08742579
0.07904377
0.05818572
0.01636111
0.1052813
0.1063009
0.1068677
0.1063481
0.1049141
0.1024893
0.0985141
0.09344602
0.08868589
0.08525218
0.08336346
0.08326355
0.08527957
0.08954695
0.09543652
0.101077
0.1034534
0.09906594
0.08918924
0.07994405
0.07594985
0.07756016
0.08289038
0.0894097
0.09335923
0.09394342
0.09080364
0.08131603
0.05852785
0.01594151
0.1061589
0.1077731
0.108184
0.1075452
0.1062415
0.104095
0.1002906
0.09424749
0.08790987
0.08360125
0.08147858
0.08154761
0.08398555
0.08883043
0.09530746
0.1013329
0.1037001
0.09885166
0.08876773
0.07979508
0.07643854
0.07902736
0.08579711
0.09365935
0.09805433
0.09891603
0.0963269
0.08740604
0.06361384
0.0166173
0.1068069
0.1073919
0.1069698
0.1063755
0.1056889
0.1045558
0.1017885
0.09437673
0.08604255
0.08131231
0.07936397
0.07981978
0.08271491
0.0880254
0.09489912
0.1011376
0.1034288
0.09818266
0.08787452
0.07893192
0.07571911
0.0787633
0.08723624
0.09848763
0.1024941
0.1033659
0.1025028
0.09804953
0.07986885
0.02195992
0.106602
0.1068775
0.1062044
0.1053617
0.10439
0.1027775
0.09891276
0.09107244
0.08586671
0.08260565
0.08106661
0.08121156
0.08318254
0.08695372
0.09182988
0.09617608
0.09757321
0.09319441
0.08440297
0.07680087
0.07402683
0.07641687
0.08332285
0.09569638
0.1001284
0.1011088
0.1002959
0.09618658
0.07960652
0.02220018
0.1052799
0.1062966
0.1068594
0.1063331
0.1048845
0.1024289
0.09837728
0.0934726
0.08880902
0.08531023
0.08329742
0.08294044
0.0844112
0.08766661
0.09203659
0.09598786
0.0972605
0.0931746
0.08476279
0.07743595
0.07485427
0.07718887
0.08282077
0.08943794
0.09343401
0.09402097
0.09087144
0.08137349
0.05856885
0.01594447
0.103942
0.1039095
0.10494
0.105339
0.1045856
0.1025935
0.09918188
0.09502839
0.0909331
0.08759312
0.08542559
0.08471242
0.08566182
0.08823679
0.09183165
0.0950962
0.0960534
0.09227128
0.08434763
0.07731263
0.07469879
0.07656081
0.08104422
0.08581159
0.08844405
0.08791848
0.08309634
0.07148635
0.0486579
0.01321917
0.1033551
0.1022619
0.1026547
0.1029677
0.1024334
0.1008003
0.09799292
0.09457724
0.09118539
0.08832798
0.08637865
0.08563026
0.08628955
0.08831253
0.09114907
0.09364531
0.09416492
0.09057624
0.08300737
0.07604233
0.073122
0.07431349
0.07781117
0.08149875
0.08338733
0.08244377
0.07744994
0.06622665
0.04509521
0.01274152
0.1031721
0.1015452
0.1013177
0.1011625
0.1003809
0.09870177
0.09614002
0.09315328
0.09027718
0.0878924
0.08628236
0.08567901
0.08623098
0.08784161
0.08997401
0.09165447
0.09162583
0.08811282
0.08078686
0.07377818
0.07053492
0.07123953
0.0742249
0.07756477
0.07939596
0.07876533
0.07452513
0.06459423
0.04503304
0.01305786
0.103137
0.101305
0.1007263
0.1001927
0.09909442
0.09718286
0.09454865
0.09169101
0.08908744
0.08702224
0.08568812
0.0852353
0.08572252
0.08695722
0.08836687
0.0891388
0.08843953
0.08492074
0.07783272
0.07085514
0.06752757
0.06816594
0.07120583
0.07480462
0.07704134
0.07706582
0.07378025
0.06504061
0.04635786
0.01344194
0.1031419
0.1012412
0.1004905
0.09972537
0.09838703
0.09623696
0.09347863
0.09064139
0.08815499
0.08624756
0.08505563
0.0846617
0.08502523
0.08582352
0.08640442
0.08611421
0.08461159
0.0810524
0.07429622
0.0675568
0.06449072
0.06547496
0.06896284
0.07312443
0.07592512
0.07662098
0.07413201
0.06621224
0.04787993
0.01373171
0.1031508
0.1012254
0.1003881
0.09948758
0.09798904
0.09564955
0.09280151
0.08997531
0.08753498
0.08568645
0.08453902
0.08412142
0.0842864
0.08454911
0.08414141
0.08259829
0.08017316
0.0765912
0.07031912
0.06407239
0.06159489
0.06320868
0.06732567
0.07211965
0.07546378
0.07671485
0.0748017
0.0673939
0.049152
0.01392915
0.1031547
0.1012152
0.1003285
0.09934783
0.09774825
0.09527295
0.09231036
0.08945585
0.08703875
0.08522981
0.08410548
0.08363801
0.08356165
0.08319811
0.08163405
0.07866017
0.07524895
0.07171535
0.06608327
0.06055112
0.05889549
0.06127544
0.06604984
0.07142397
0.07526039
0.07693755
0.07542481
0.06833553
0.05009063
0.01405935
0.1031535
0.1012005
0.1002801
0.09924866
0.09758569
0.09502122
0.09197079
0.08907259
0.08665528
0.08486793
0.0837552
0.08322891
0.08289359
0.08185193
0.07902445
0.07454238
0.07018461
0.06679255
0.06188245
0.05717337
0.05643166
0.05959087
0.06497852
0.07086196
0.07511783
0.07711697
0.07588608
0.06900454
0.05073882
0.01414317
0.103149
0.1011812
0.1002334
0.09916432
0.09745052
0.09482879
0.09172584
0.08879875
0.08637925
0.08460461
0.08349557
0.08291044
0.08233231
0.08065516
0.07664641
0.07080981
0.06565864
0.06242378
0.05815494
0.05418472
0.05426632
0.05810641
0.06401633
0.07033219
0.07495699
0.07720516
0.07618007
0.06944338
0.05116513
0.01419548
0.103143
0.10116
0.1001868
0.09908404
0.09732697
0.09466908
0.091548
0.0886165
0.08620253
0.08443596
0.08332337
0.08268694
0.08192481
0.07978926
0.07495521
0.06819454
0.06245625
0.05926577
0.05540686
0.05187874
0.0525029
0.0568338
0.06314624
0.06981513
0.07475627
0.07720442
0.07633761
0.06970888
0.0514313
0.0142266
0.1031373
0.10114
0.1001432
0.09900853
0.0972167
0.09456394
0.09145613
0.08853114
0.08611943
0.08434934
0.08322245
0.08254666
0.08168686
0.07934301
0.07416269
0.0670254
0.0610182
0.05780072
0.05408506
0.05055
0.05127805
0.05583162
0.06239053
0.06931345
0.07451475
0.077132
0.07639491
0.06985138
0.05158536
0.01424377
0.1031331
0.1011254
0.1001111
0.09895272
0.09713444
0.09447422
0.09138443
0.08847835
0.08607465
0.08430006
0.08315842
0.08246679
0.08161369
0.07933803
0.07431583
0.06739788
0.06155927
0.05832952
0.05449714
0.05045468
0.05075341
0.05520546
0.06181855
0.06885925
0.07424593
0.07701013
0.07638466
0.06991023
0.05166225
0.01425198
0.1031313
0.1011192
0.1000967
0.09892671
0.09709556
0.09443401
0.0913531
0.08845424
0.08605007
0.08426618
0.08311312
0.08243813
0.0817127
0.07982253
0.07555356
0.0695411
0.06429714
0.06099018
0.05671479
0.05170661
0.05104589
0.05506828
0.06155452
0.06856171
0.07400273
0.07687564
0.07633843
0.06991517
0.05168604
0.0142544
0.1031324
0.1011224
0.1001027
0.09893548
0.09710676
0.09444831
0.09136384
0.08845676
0.08604181
0.08424503
0.0830876
0.08246311
0.08197423
0.08075557
0.07780512
0.07334471
0.06902093
0.06554428
0.060458
0.05412936
0.05207924
0.05535477
0.06154634
0.06843464
0.07386884
0.07678802
0.07628939
0.06988752
0.05167134
0.01425264
0.1031361
0.1011345
0.1001278
0.09897744
0.09716505
0.09450596
0.09140801
0.08848599
0.0860558
0.08424678
0.08309372
0.08254123
0.08233219
0.08186705
0.08037465
0.07769707
0.07452555
0.07098739
0.0649634
0.05725233
0.05366704
0.05601238
0.06181332
0.06854624
0.0739075
0.07677955
0.07625131
0.06983272
0.05162017
0.01424674
0.1031419
0.1011532
0.1001666
0.09904291
0.09726416
0.09461452
0.09150449
0.088563
0.0861136
0.08429261
0.08314948
0.08267573
0.08273489
0.08294487
0.08271698
0.08163777
0.07964499
0.07625407
0.06941442
0.06047904
0.0555123
0.05692699
0.06230806
0.0688695
0.07409192
0.07683462
0.07621147
0.06973801
0.05152157
0.01423524
0.1031488
0.1011762
0.1002147
0.09912312
0.0973804
0.09473534
0.091617
0.08867062
0.0862175
0.08439587
0.0832702
0.08287484
0.08317055
0.08393726
0.0847173
0.08493846
0.0839985
0.08085688
0.07339497
0.06350746
0.05745965
0.05805289
0.06299009
0.06932137
0.07434654
0.07689902
0.07613192
0.06957218
0.05135127
0.01421517
0.1031555
0.1011993
0.1002641
0.09920713
0.09750874
0.09490253
0.09180869
0.0888718
0.08641615
0.08458994
0.08347698
0.08315091
0.08364944
0.08487017
0.08644496
0.08769488
0.08762809
0.08472952
0.0768012
0.06625333
0.05947115
0.05940545
0.06388133
0.0698734
0.0745825
0.07690491
0.07596223
0.06929031
0.05107262
0.01418185
0.1031603
0.1012194
0.1003125
0.09929489
0.09764628
0.09510372
0.0920687
0.08916254
0.08670942
0.08487532
0.08376971
0.08350444
0.08418032
0.08578195
0.08799958
0.09006851
0.09069804
0.08797325
0.07967809
0.06872093
0.06149927
0.0609074
0.0648886
0.07044421
0.07476544
0.07681895
0.07565997
0.06884044
0.0506377
0.01412825
0.1031614
0.1012342
0.1003618
0.09939715
0.09781498
0.09536665
0.09241995
0.08955087
0.08709299
0.08524228
0.08413809
0.08392755
0.08476403
0.08669837
0.08945602
0.09219048
0.0933627
0.09071818
0.08212252
0.07096818
0.06354853
0.06254526
0.06601273
0.07105842
0.07492332
0.07664219
0.07519556
0.0681665
0.04998545
0.01404414
0.1031571
0.1012435
0.1004207
0.09953746
0.09805788
0.09574597
0.09290589
0.09005617
0.08757325
0.08569271
0.08458109
0.084416
0.08539678
0.08762793
0.09085299
0.09413901
0.09572517
0.09306685
0.08423124
0.07307349
0.06567067
0.06437573
0.06733422
0.07181129
0.07514575
0.07642859
0.07457637
0.06722647
0.04904756
0.01391464
0.1031475
0.1012573
0.10052
0.09977086
0.09845002
0.09632701
0.09358936
0.09074222
0.08822134
0.08628772
0.08513527
0.08497921
0.08606893
0.08855749
0.09219173
0.09594039
0.09783227
0.0950765
0.08606911
0.07509669
0.06792792
0.06650064
0.069007
0.07288834
0.07563464
0.07635199
0.07391726
0.06605188
0.04778032
0.01371872
0.1031416
0.1013186
0.1007514
0.1002316
0.09914886
0.09726259
0.09464863
0.09179664
0.08917884
0.08710175
0.0858132
0.08558518
0.08672542
0.08943013
0.09343012
0.09757455
0.09968176
0.09675619
0.08764532
0.07703566
0.0703401
0.06902932
0.07126666
0.07463161
0.07678445
0.0768198
0.07358026
0.0648904
0.0462654
0.01343095
0.1031758
0.1015564
0.1013389
0.1011958
0.1004282
0.09877218
0.09623139
0.09325725
0.09037695
0.0879911
0.08643475
0.08605059
0.08720369
0.09011804
0.09447874
0.09898421
0.1012353
0.09807037
0.08889386
0.07877345
0.07278594
0.07193901
0.07428343
0.0774329
0.07917402
0.07854611
0.07434283
0.06445556
0.04494792
0.01304897
0.1033581
0.1022712
0.1026727
0.1029971
0.1024769
0.1008647
0.09807937
0.09467271
0.09127105
0.08841535
0.08652831
0.08600213
0.08723177
0.09043753
0.09522039
0.1000945
0.1024367
0.09895131
0.08967296
0.08004716
0.07490238
0.07486963
0.07786119
0.08139494
0.08320504
0.08225916
0.07729246
0.06610413
0.04501942
0.01273451
0.1039443
0.1039169
0.1049546
0.1053637
0.1046252
0.1026593
0.09927656
0.09509713
0.09096404
0.08762581
0.08553602
0.08506146
0.0865718
0.09024545
0.0955663
0.1008438
0.1032358
0.0993317
0.0898191
0.08051243
0.07610721
0.07701235
0.08109809
0.08574033
0.08831273
0.08778241
0.08297772
0.07139085
0.04859652
0.0132141
0.1052814
0.1063014
0.1068689
0.1063511
0.10492
0.1024989
0.09850038
0.09355779
0.08879859
0.08527252
0.08334278
0.08324889
0.08529017
0.08959103
0.09551898
0.1011955
0.1035918
0.09919321
0.08928742
0.08000568
0.07598285
0.07757615
0.08289766
0.08941372
0.09336021
0.09394391
0.09080434
0.08131716
0.05852917
0.01594175
0.1066024
0.1068787
0.106207
0.1053686
0.1044152
0.1028755
0.09920155
0.09120995
0.0857912
0.08248339
0.08103603
0.08147264
0.08403272
0.08882105
0.09514957
0.1010408
0.1033662
0.09854698
0.08831238
0.0789569
0.07497215
0.07676271
0.08341457
0.09570291
0.1001108
0.1010893
0.1002788
0.09617116
0.07959254
0.02219964
0.1065501
0.1066065
0.1057348
0.1047112
0.10352
0.1014397
0.09647647
0.08864201
0.08471829
0.08256729
0.08166706
0.08204843
0.08392014
0.08730649
0.09162692
0.09546307
0.09664905
0.09246801
0.08362263