/*--------------------------------*- C++ -*----------------------------------*\
| =========                 |                                                 |
| \\      /  F ield         | OpenFOAM: The Open Source CFD Toolbox           |
|  \\    /   O peration     | Version:  2506                                  |
|   \\  /    A nd           | Website:  www.openfoam.com                      |
|    \\/     M anipulation  |                                                 |
\*---------------------------------------------------------------------------*/
FoamFile
{
    version     2.0;
    format      ascii;
    arch        "LSB;label=32;scalar=64";
    class       volScalarField;
    location    "400/airRegion";
    object      k;
}
// * * * * * * * * * * * * * * * * * * * * * * * * * * * * * * * * * * * * * //

dimensions      [0 2 -2 0 0 0 0];

internalField   nonuniform List<scalar> 
85779
(
0.09241215
0.08934062
0.08844199
0.08807819
0.08785277
0.08751546
0.08633793
0.08123816
0.05587833
0.03996034
0.03118878
0.02617792
0.02325171
0.02170317
0.02110584
0.02105175
0.02123692
0.02164462
0.02267966
0.02530107
0.03104117
0.04280311
0.06840805
0.0842993
0.08711482
0.08779292
0.0880077
0.08781994
0.08604332
0.07249484
0.09016751
0.08487211
0.08289242
0.08194931
0.08129455
0.0803582
0.07767132
0.06770567
0.04807652
0.03689029
0.03003539
0.02571336
0.02305078
0.02161262
0.02106456
0.02102705
0.02118409
0.02146598
0.0222594
0.02447196
0.02928351
0.0381332
0.05308382
0.07500699
0.07956034
0.08088357
0.08130844
0.08098672
0.07859223
0.06397059
0.09012268
0.08421431
0.08174262
0.08045088
0.07948014
0.07799511
0.07346645
0.05436971
0.04226994
0.03428425
0.02887313
0.02519904
0.02281866
0.02147074
0.02090032
0.0207787
0.02082007
0.02095611
0.02155745
0.02345026
0.02763576
0.03524767
0.04835246
0.07222557
0.07727507
0.0788923
0.07955323
0.07954317
0.07791232
0.06537634
0.09038649
0.08437286
0.08171174
0.08023264
0.07901107
0.07682931
0.0689196
0.0500547
0.03950662
0.03269643
0.02801453
0.02475724
0.02258736
0.02130302
0.02068889
0.02045554
0.02035126
0.02032251
0.02074204
0.02240785
0.02628359
0.03351717
0.04647381
0.07137226
0.07668123
0.07850999
0.07940011
0.07969692
0.0785662
0.06654132
0.09061696
0.08462537
0.08189661
0.08031373
0.07890022
0.07604352
0.06300477
0.04756104
0.03791817
0.03167463
0.02738446
0.02438287
0.02235222
0.02110119
0.02042775
0.02006807
0.01980139
0.01959608
0.01984519
0.0213617
0.02512072
0.03231296
0.0454661
0.07106599
0.07660662
0.0786254
0.07970505
0.08020663
0.07930717
0.06736461
0.09077259
0.08481908
0.08206372
0.08041652
0.07886884
0.07580084
0.06528981
0.04649068
0.03688873
0.03093338
0.02688477
0.02405056
0.02210917
0.02086515
0.02011789
0.01961983
0.01917809
0.01878917
0.01888174
0.02030898
0.02405933
0.03133505
0.04473783
0.07088561
0.07665407
0.07884654
0.08007446
0.08069927
0.07987033
0.06795001
0.09086807
0.08494308
0.08217296
0.08047318
0.07877558
0.07505857
0.05925048
0.04449757
0.03580875
0.03026253
0.02644543
0.02374505
0.02186272
0.02060485
0.01976972
0.01912104
0.01849259
0.01791537
0.0178674
0.01925302
0.02305591
0.0304573
0.04409522
0.07070237
0.07669231
0.07904243
0.08038767
0.08109039
0.08027917
0.06835144
0.09092264
0.08501385
0.08223132
0.08048294
0.07860671
0.07410337
0.05395627
0.04214885
0.03470027
0.02964758
0.02605754
0.02346717
0.02162162
0.02033375
0.01939875
0.01858783
0.01776174
0.01699305
0.01682318
0.01820731
0.02209832
0.02963389
0.04347716
0.07048234
0.07668413
0.07917765
0.0806191
0.08137593
0.08056586
0.06862432
0.09095086
0.08504806
0.08225268
0.08046735
0.07849363
0.07367994
0.05258082
0.04114362
0.03404913
0.02921305
0.02574918
0.02322505
0.02139484
0.02006582
0.01902352
0.0180423
0.01701069
0.01605013
0.01577968
0.0171954
0.02119321
0.02885565
0.04287079
0.07022252
0.07662658
0.07925147
0.08077476
0.0815732
0.08076112
0.06880734
0.09096355
0.08506041
0.0822521
0.08043663
0.0783982
0.07342838
0.05209927
0.04067774
0.03366873
0.0289136
0.02551007
0.02302047
0.02119132
0.01981635
0.01866633
0.01751502
0.0162785
0.01513224
0.0147827
0.01625086
0.02035797
0.02813112
0.04228568
0.06993034
0.07652945
0.0792752
0.08086974
0.08170272
0.08088987
0.06892723
0.09096825
0.08506202
0.08224162
0.08039861
0.07829772
0.07318583
0.05178425
0.04037292
0.03340359
0.02869107
0.02532238
0.02285259
0.02101875
0.0196004
0.01835305
0.01704803
0.01562503
0.0143111
0.01389726
0.01541612
0.01961439
0.02747281
0.04173031
0.06955937
0.07640199
0.07926301
0.08092028
0.08178291
0.08097141
0.06900316
0.09096994
0.0850605
0.08222932
0.0803534
0.07813605
0.07262869
0.05135114
0.04006914
0.03317566
0.02851188
0.02517462
0.02272046
0.0208823
0.0194306
0.0181106
0.01669166
0.0151272
0.01367963
0.01320225
0.01473844
0.01898362
0.02688796
0.04121262
0.06918357
0.07626294
0.07922904
0.08094079
0.08182883
0.08102036
0.06904902
0.09097141
0.08506021
0.08221876
0.08028093
0.07771253
0.06986554
0.05036153
0.0396641
0.03295436
0.0283648
0.02506259
0.02262323
0.02078419
0.01931512
0.01795965
0.01648802
0.01485466
0.01332644
0.0127738
0.01426396
0.01848367
0.02636706
0.04069224
0.06878425
0.07610932
0.07918127
0.08094231
0.081852
0.08104752
0.06907483
0.09097273
0.08506081
0.08221334
0.08025596
0.07768607
0.07080509
0.05015964
0.03943547
0.03280294
0.02826358
0.02498732
0.02255931
0.02072377
0.01925688
0.0179102
0.01645937
0.01484749
0.01330769
0.01266601
0.01403136
0.01812873
0.02586843
0.03998228
0.06802551
0.07586369
0.0791134
0.08093147
0.08186066
0.08106057
0.06908766
0.09097365
0.08506167
0.08221123
0.08023939
0.07761732
0.07058702
0.04995199
0.03930849
0.03272729
0.02821414
0.02495001
0.02252797
0.02070031
0.01925552
0.0179618
0.01660451
0.01510406
0.01362522
0.01288945
0.01406091
0.01793862
0.02534994
0.03864775
0.06525357
0.07529584
0.07900682
0.08091231
0.08186026
0.08106438
0.06909191
0.09097398
0.08506228
0.08221178
0.08022978
0.07747855
0.06890133
0.04970409
0.0392945
0.03273707
0.02822108
0.02495268
0.02253046
0.02071426
0.01930755
0.01809918
0.01688408
0.01555277
0.01419291
0.01338809
0.0143417
0.01797759
0.02510714
0.03754735
0.0583537
0.07471342
0.07893388
0.08089725
0.08185462
0.08106125
0.06908958
0.09097397
0.08506317
0.0822168
0.08026022
0.07750396
0.0664325
0.04986386
0.0394659
0.03283964
0.02828421
0.02499561
0.02256774
0.02076502
0.01940492
0.0182954
0.01723692
0.01608734
0.01486642
0.01403666
0.01481392
0.01826194
0.02531559
0.03799751
0.06212356
0.07493066
0.07894944
0.08089173
0.08184455
0.08105128
0.06908063
0.09097408
0.08506556
0.08222762
0.08031494
0.07794956
0.07189573
0.05083245
0.039786
0.03300971
0.02839484
0.02507721
0.02264041
0.02085205
0.01954155
0.01853139
0.01762252
0.01664201
0.01555595
0.01474204
0.01540676
0.01874308
0.02583952
0.038721
0.06063202
0.07513341
0.07900334
0.08089039
0.08182747
0.08103226
0.06906306
0.09097374
0.08506806
0.08224117
0.08037466
0.07820334
0.07292483
0.05148808
0.04014796
0.03323197
0.02854877
0.02519688
0.02274887
0.02097465
0.0197135
0.01879802
0.01802527
0.01719448
0.01623031
0.0154625
0.01607667
0.01936641
0.02662429
0.04045412
0.06795655
0.07590356
0.07910586
0.08088617
0.08179788
0.08099978
0.06903292
0.09097278
0.08507097
0.08225579
0.08042133
0.07833917
0.07327865
0.05187622
0.04045867
0.03347286
0.02873906
0.02535455
0.02289341
0.02113157
0.01991776
0.01909135
0.01844228
0.01774461
0.01689073
0.01619049
0.01680089
0.02005944
0.02733953
0.04129949
0.06896639
0.0761645
0.07915283
0.08086151
0.08174696
0.0809468
0.06898385
0.09096823
0.08506961
0.08226669
0.08046019
0.07843947
0.0735133
0.05222081
0.04080321
0.03376934
0.02898182
0.02555576
0.0230738
0.02131948
0.02014973
0.01940757
0.01887315
0.01829743
0.017547
0.01693005
0.0175709
0.02081109
0.02805036
0.04194104
0.0694104
0.07630982
0.07916493
0.08080759
0.08166368
0.08086289
0.06890616
0.09095512
0.08505642
0.08226618
0.0804905
0.07853799
0.07377736
0.05275927
0.04134344
0.03420491
0.02931278
0.02581176
0.02328985
0.02153311
0.02040235
0.01974031
0.01931469
0.01885493
0.01820659
0.01768666
0.01838474
0.02162203
0.02880178
0.04257283
0.06981048
0.07642437
0.07914393
0.08071234
0.08153341
0.08073358
0.06878616
0.09092613
0.0850207
0.08224265
0.08050422
0.07865132
0.07419068
0.05401302
0.04237364
0.03489687
0.02977237
0.02613317
0.02354024
0.02176572
0.02066633
0.02007992
0.0197591
0.01941318
0.01887058
0.01846201
0.01924062
0.02249084
0.02960555
0.0432289
0.07017765
0.07650656
0.0790783
0.08056002
0.08133774
0.08053949
0.06860456
0.09087087
0.08494864
0.08218215
0.08048956
0.07879545
0.07496161
0.05750903
0.04433773
0.03592359
0.0303669
0.02651745
0.0238205
0.02200977
0.02093099
0.02041398
0.02019429
0.01996225
0.01953295
0.01925171
0.02013377
0.02341396
0.03046159
0.04390388
0.07045697
0.0765417
0.07895578
0.08033501
0.08105579
0.08025539
0.06833438
0.09077469
0.08482333
0.08207063
0.08042825
0.07888945
0.0758267
0.06517917
0.04655732
0.03698892
0.03101138
0.0269437
0.02412266
0.02225601
0.02118371
0.02072776
0.02060518
0.02048796
0.0201818
0.02004548
0.02105708
0.0243916
0.03137899
0.04461159
0.07069799
0.07653441
0.07877601
0.08003048
0.08066969
0.07985001
0.06793648
0.09061828
0.08462815
0.08190096
0.08032017
0.07891246
0.0760773
0.0629953
0.04769928
0.03801532
0.03173439
0.02742966
0.024448
0.02249541
0.02141068
0.02100604
0.02097635
0.02097466
0.02080173
0.02082905
0.02200424
0.02543821
0.03240017
0.04540665
0.0709369
0.07652002
0.07857291
0.07967112
0.08018287
0.07929021
0.06735532
0.09038706
0.0843742
0.08171364
0.08023485
0.07902226
0.07679421
0.06619391
0.05057015
0.03976355
0.03278457
0.02805675
0.02481519
0.02272413
0.02160182
0.0212377
0.0212959
0.02140825
0.02137603
0.0215859
0.02297336
0.02659767
0.03364835
0.04647769
0.07129825
0.07662684
0.07847566
0.07937655
0.0796793
0.07855323
0.06653564
0.09012268
0.08421453
0.08174284
0.08045073
0.07948453
0.0780579
0.07388575
0.05798717
0.04313578
0.03445471
0.02891943
0.0252497
0.0229473
0.02175806
0.02142167
0.02155863
0.0217776
0.02188717
0.02229653
0.02396546
0.02795759
0.03542108
0.04840958
0.07219778
0.07724895
0.07887431
0.07953928
0.07953142
0.07790333
0.06537347
0.0901673
0.0848718
0.08289189
0.08194848
0.08129475
0.08037093
0.07775207
0.06807009
0.04759465
0.0366802
0.02999593
0.02574218
0.02316956
0.02188932
0.02156149
0.0217542
0.0220579
0.02230074
0.02292336
0.02495961
0.02962397
0.03834574
0.05317037
0.07501203
0.07955567
0.08087837
0.08130242
0.08098019
0.07858667
0.06396951
0.09241198
0.08934025
0.08844128
0.08807704
0.08785179
0.08751574
0.08631464
0.08088254
0.05267336
0.03886113
0.03095923
0.02617077
0.02336036
0.0219688
0.02158001
0.02173837
0.02205473
0.02242031
0.02329984
0.02577883
0.03140668
0.04305064
0.06846991
0.08431731
0.08712274
0.08779585
0.08800759
0.08781824
0.08604147
0.07249477
0.09016753
0.08487217
0.08289258
0.08194941
0.08129276
0.08034143
0.07745419
0.0639396
0.04767712
0.0368234
0.03002268
0.02571331
0.02305559
0.02162232
0.02108164
0.02105382
0.0212194
0.02150347
0.02229204
0.02449562
0.02929632
0.03813566
0.05307903
0.07499903
0.07955679
0.08088237
0.08130841
0.08098718
0.07859285
0.06397099
0.08594128
0.07603488
0.07142049
0.06889838
0.06705488
0.06489695
0.06103366
0.05297417
0.04275324
0.03477582
0.02915227
0.02532335
0.02287419
0.02153558
0.02103615
0.02101741
0.02115053
0.02131012
0.02185744
0.02367801
0.02775629
0.03486469
0.04533992
0.05748382
0.06301225
0.06527313
0.06579089
0.06434815
0.05833478
0.03663582
0.08530912
0.0738156
0.06784386
0.06431608
0.06166432
0.05876316
0.05434471
0.04653644
0.03895968
0.03282319
0.0281977
0.02487434
0.02266085
0.02139554
0.02086468
0.02075452
0.02076784
0.02078141
0.02113179
0.02262834
0.02609937
0.03206292
0.04063241
0.05074477
0.05619411
0.05872973
0.05942651
0.0580685
0.05248454
0.0337215
0.08545136
0.07355031
0.066986
0.06289107
0.05968834
0.05615917
0.0509665
0.04341896
0.03676337
0.03147112
0.0274317
0.02446761
0.02244126
0.02122857
0.02064617
0.02041719
0.02028075
0.02012891
0.02028809
0.02153158
0.02463335
0.03007912
0.03808415
0.04796824
0.05358442
0.056443
0.05757378
0.05688198
0.0525204
0.03552524
0.08568262
0.07374896
0.06695604
0.06255699
0.05897726
0.05494166
0.04898431
0.04165621
0.03542049
0.03054639
0.02684135
0.0241094
0.02221152
0.02102506
0.02037573
0.02001224
0.01970815
0.01937823
0.01935618
0.02042059
0.02334237
0.02863097
0.03661061
0.04677633
0.05276495
0.05602301
0.05762351
0.05753996
0.0540025
0.03739865
0.08585967
0.07397732
0.06709978
0.06253336
0.05870055
0.05432408
0.04806364
0.04058505
0.03451301
0.029867
0.02636673
0.02378574
0.02196945
0.02078377
0.0200522
0.01954038
0.01905416
0.01853788
0.01834948
0.01930098
0.02217036
0.02748103
0.03562745
0.0461973
0.05261697
0.05626639
0.05825325
0.05857473
0.05545014
0.0387506
0.08597178
0.07413796
0.0672218
0.0625441
0.05850288
0.0537739
0.04681371
0.03953963
0.03372362
0.02929532
0.02595959
0.02348832
0.02172147
0.02051475
0.0196852
0.01901031
0.01832792
0.0176193
0.01728353
0.01818014
0.02107978
0.02649228
0.03485128
0.0458064
0.05264004
0.05663614
0.0589186
0.05949476
0.0565673
0.03967088
0.08603495
0.07422934
0.06728573
0.06252015
0.05828939
0.05320122
0.04541098
0.03848815
0.03301063
0.02880424
0.02560896
0.02321897
0.02147793
0.02023268
0.01929062
0.01843737
0.0175446
0.01663921
0.01617967
0.01707317
0.02005577
0.02559796
0.03415552
0.04542762
0.05263768
0.05693492
0.05944682
0.06019062
0.05736279
0.04028781
0.08606603
0.0742707
0.06730263
0.0624722
0.05811846
0.05284428
0.04476291
0.03787836
0.03252599
0.02843413
0.02532309
0.02298262
0.02124863
0.01995297
0.01888783
0.01784338
0.01672811
0.0156247
0.01506962
0.01600424
0.01910009
0.02477237
0.03349031
0.04497858
0.05255148
0.05711469
0.05981223
0.0606759
0.05790521
0.04069664
0.08607798
0.07428118
0.06728953
0.06240827
0.05797009
0.05259825
0.04441279
0.03751261
0.03219873
0.0281592
0.02509412
0.02278118
0.02104289
0.01969183
0.01850041
0.01726029
0.01591916
0.0146244
0.0140031
0.01500798
0.01822544
0.02401388
0.03285621
0.04449059
0.05238946
0.05718598
0.06003838
0.06099453
0.05826254
0.0409621
0.08607979
0.07427533
0.0672604
0.06233327
0.05781578
0.05237561
0.04414754
0.03724402
0.03195351
0.02794645
0.02491091
0.02261486
0.02086825
0.01946491
0.01815735
0.01673717
0.01518793
0.01372195
0.01305395
0.01412937
0.01745049
0.0233307
0.03227407
0.04406184
0.05218482
0.0571777
0.06016032
0.06119118
0.05848908
0.04112913
0.08607733
0.07426298
0.06722453
0.06224778
0.05763142
0.05206686
0.04385592
0.03699633
0.03174775
0.02777576
0.02476608
0.02248307
0.02072926
0.01928575
0.01789157
0.01633825
0.01463117
0.01303
0.01231281
0.01341941
0.01679626
0.02272855
0.03174
0.04365497
0.05195609
0.05711775
0.06021075
0.06130304
0.05862552
0.04122938
0.08607406
0.07425026
0.06718775
0.06214656
0.05735392
0.0514004
0.04343645
0.03673532
0.03156795
0.02764112
0.02465686
0.02238494
0.02062792
0.01916377
0.01772871
0.01611612
0.0143348
0.01265359
0.01186529
0.01292834
0.01628502
0.02220914
0.03123388
0.04323242
0.05170587
0.05702561
0.06021543
0.06135863
0.05870154
0.04128543
0.08607169
0.07424119
0.06716151
0.06207844
0.0572154
0.05124106
0.04321031
0.03655819
0.03144278
0.02754943
0.02458335
0.02231913
0.02056414
0.01910309
0.01768123
0.01609737
0.01434605
0.01265736
0.0117721
0.01270025
0.01594121
0.02176835
0.03069141
0.04265811
0.05139446
0.05690696
0.0601923
0.06137848
0.05873789
0.04131287
0.08607093
0.0742377
0.06715013
0.06204615
0.05713791
0.05110058
0.04308568
0.03647068
0.03138312
0.02750549
0.02454649
0.02228553
0.02053819
0.01910438
0.01774983
0.01628245
0.01466482
0.01304461
0.01204638
0.01275965
0.01579315
0.02142193
0.0300401
0.04161782
0.05095167
0.0567662
0.06015548
0.06137672
0.05874809
0.04132156
0.08607202
0.07424043
0.06715548
0.062055
0.05712994
0.05096481
0.04307258
0.03648449
0.03139583
0.02751261
0.02454834
0.02228636
0.02055173
0.01916406
0.01791531
0.01662129
0.01520182
0.01371407
0.01262637
0.01309051
0.01587377
0.02130706
0.02968672
0.04079853
0.05069147
0.05668412
0.0601258
0.06136262
0.05873923
0.0413162
0.08607492
0.0742491
0.06717713
0.06211119
0.05726924
0.05113291
0.04325738
0.03661085
0.03147999
0.02756983
0.02458952
0.02232316
0.02060437
0.0192718
0.01814159
0.0170325
0.01581913
0.01448401
0.01336265
0.01362251
0.01618028
0.02148596
0.02984433
0.04108802
0.05075398
0.05669026
0.06011078
0.06133815
0.05871188
0.04129679
0.08607931
0.0742625
0.06720951
0.06218801
0.05746639
0.05172191
0.04357994
0.03681315
0.03162008
0.02767184
0.02466916
0.02239643
0.02069494
0.01941934
0.01840358
0.01746408
0.0164359
0.01524555
0.01414017
0.0142677
0.01666463
0.02191728
0.0303575
0.04163407
0.051036
0.05676804
0.06010335
0.06129723
0.05866005
0.0412589
0.08608421
0.07427873
0.06725121
0.06229082
0.05770589
0.05218195
0.04394921
0.03707412
0.03180872
0.02781533
0.02478646
0.02250589
0.02082172
0.0196016
0.0186914
0.01790122
0.01703242
0.01596897
0.01491246
0.01497664
0.01727711
0.02252818
0.0311642
0.04290115
0.05149091
0.0568799
0.0600841
0.06122575
0.05857102
0.04119352
0.08608773
0.0742933
0.06729049
0.06238083
0.05789109
0.05246527
0.04424202
0.03733347
0.03202647
0.02799626
0.02494126
0.02265112
0.02098271
0.01981518
0.01900213
0.01834458
0.01761466
0.01666273
0.01567571
0.01572973
0.01797376
0.02318798
0.03182576
0.04351852
0.05178645
0.05694373
0.06002233
0.06110206
0.05842466
0.04108625
0.08608626
0.07429985
0.06732086
0.06245813
0.05804666
0.0526969
0.04452952
0.03762792
0.03229277
0.02822407
0.02513668
0.02283114
0.0211744
0.02005577
0.0193334
0.01879708
0.01819283
0.01734319
0.01643994
0.0165225
0.0187399
0.02389608
0.03244582
0.04397067
0.05199929
0.05694773
0.05989261
0.06089813
0.05819207
0.04091533
0.08607396
0.07428867
0.06733342
0.06252335
0.05820178
0.05296253
0.04491997
0.03803842
0.03265385
0.02852019
0.02537959
0.0230449
0.02139166
0.02031682
0.01968
0.01925776
0.01877224
0.01802226
0.01721569
0.01735707
0.01957338
0.02466653
0.03309017
0.04439672
0.05216031
0.05687709
0.05966513
0.06057755
0.057833
0.04064935
0.08604198
0.07424549
0.06731421
0.06257001
0.05837604
0.05333111
0.04558077
0.03867966
0.03316584
0.02890769
0.02567667
0.0232906
0.02162784
0.02058921
0.02003273
0.01971987
0.01935054
0.01870339
0.018008
0.01823542
0.02047477
0.02550756
0.03378145
0.0448294
0.05226486
0.05670952
0.05930611
0.06009578
0.05729306
0.04024331
0.08597763
0.07415155
0.06724592
0.06258592
0.0585716
0.05385445
0.04676976
0.03965151
0.03385206
0.02939087
0.02602775
0.02356446
0.02187498
0.02086156
0.02037869
0.02017117
0.01991799
0.0193812
0.01881419
0.01915605
0.02144595
0.02642912
0.03453943
0.04531345
0.05231438
0.05643505
0.05879124
0.05940805
0.05650356
0.03963184
0.08586416
0.07398792
0.06711849
0.0625649
0.05875142
0.05439473
0.04813742
0.04069056
0.03461245
0.02994298
0.02642662
0.02386089
0.02212311
0.02112002
0.0207021
0.02059578
0.02045962
0.02004322
0.01962433
0.02011403
0.02249354
0.02745417
0.03539174
0.04582027
0.05235069
0.05609728
0.05814399
0.05849928
0.05539475
0.03871871
0.0856857
0.07375648
0.06696941
0.06257915
0.059013
0.05499642
0.0490634
0.0417529
0.03550069
0.03060518
0.0268904
0.02417933
0.02236165
0.02134967
0.0209869
0.02097752
0.02095887
0.02067307
0.02042337
0.02110315
0.02363657
0.028646
0.03645382
0.04650689
0.05256063
0.0558889
0.05753442
0.05747701
0.053956
0.03737463
0.08545314
0.07355503
0.06699478
0.06290657
0.05971914
0.05622676
0.05102719
0.04361631
0.03688084
0.03153311
0.02747434
0.02453041
0.0225846
0.0215402
0.02122219
0.02130459
0.02140151
0.02125373
0.02119385
0.02211828
0.02491455
0.03013912
0.03800162
0.0477892
0.0534383
0.05634322
0.05750483
0.05683147
0.05248288
0.03550845
0.08530988
0.0738181
0.06784902
0.06432584
0.06168526
0.05882221
0.05452388
0.04714249
0.03920574
0.03291119
0.02823976
0.02492963
0.02279543
0.02169357
0.02140855
0.02157356
0.02177824
0.02176951
0.02191629
0.02315189
0.02638456
0.03217072
0.0406158
0.05063731
0.05609956
0.05866231
0.05937739
0.05803041
0.05245542
0.03371053
0.0859414
0.07603571
0.07142257
0.0689031
0.067067
0.06493192
0.06112481
0.05314789
0.0427409
0.03478074
0.02917233
0.02536807
0.02299994
0.02182135
0.02155178
0.02177711
0.022068
0.02218991
0.02255374
0.02416584
0.02806196
0.03502547
0.04538138
0.05742987
0.06296411
0.06523777
0.06576316
0.06432469
0.05831562
0.03662939
0.09016725
0.08487168
0.08289172
0.08194846
0.08129529
0.08036322
0.07752492
0.06395335
0.04713251
0.0366314
0.02999773
0.02574716
0.02317455
0.02189631
0.0215719
0.02176811
0.02207382
0.02231545
0.02293473
0.02496791
0.02962993
0.03834897
0.05317085
0.07500975
0.07955501
0.08087835
0.0813027
0.0809806
0.07858713
0.06396984
0.09012267
0.0842144
0.08174288
0.08045134
0.07947999
0.07798932
0.0734264
0.05410431
0.04218279
0.03425912
0.02887045
0.02520508
0.02283138
0.0214943
0.02094195
0.02084459
0.02090849
0.02105382
0.02164579
0.02351419
0.0276688
0.03525407
0.0483417
0.07220991
0.07726762
0.0788902
0.07955374
0.0795447
0.077914
0.06537725
0.08530913
0.0738157
0.06784414
0.06431658
0.06166473
0.05876189
0.05433685
0.0465107
0.03894659
0.03282038
0.02819988
0.02487889
0.02266835
0.02140915
0.02088892
0.02079313
0.02082045
0.0208423
0.0211895
0.02267021
0.02611974
0.03206574
0.04062492
0.05073152
0.05618636
0.05872739
0.05942722
0.05807062
0.05248712
0.03372318
0.08437179
0.07075704
0.0628658
0.0579073
0.05423096
0.05075794
0.04672526
0.04145747
0.03604545
0.03127303
0.02741563
0.02450011
0.02247961
0.021268
0.02069722
0.02049452
0.02039396
0.02027227
0.02042652
0.02157588
0.02436875
0.02900245
0.03510372
0.04148276
0.04596256
0.0483026
0.04867687
0.04657082
0.04000447
0.02317984
0.08439327
0.0701542
0.06137617
0.05560693
0.05129072
0.04742341
0.04335748
0.03873142
0.03416463
0.03010564
0.02674868
0.0241439
0.02228132
0.02110177
0.02046247
0.02012694
0.01986971
0.0195848
0.01954823
0.02042401
0.02276569
0.02667052
0.03175029
0.03707705
0.04113945
0.04343576
0.04391829
0.04208277
0.03626731
0.02153479
0.08457904
0.07023866
0.06110503
0.05491163
0.0501878
0.04599406
0.041733
0.03724555
0.03299878
0.02928549
0.02621863
0.02381841
0.02206497
0.02089581
0.0201748
0.0196916
0.01925966
0.01879691
0.01857592
0.01924829
0.02133502
0.02492452
0.02969761
0.03487944
0.0390494
0.04163439
0.04256801
0.04140147
0.03655748
0.02261729
0.08473756
0.07043215
0.06116748
0.05475841
0.04977963
0.04534501
0.04089295
0.0363778
0.03224054
0.02869394
0.02579115
0.02351693
0.02182832
0.02064616
0.01982894
0.0191837
0.01856086
0.0179091
0.01751711
0.01805684
0.02004035
0.0235631
0.02836565
0.03375118
0.03828119
0.04130376
0.04274925
0.0421827
0.03797624
0.0239673
0.0848405
0.07058148
0.06126426
0.05473428
0.04958224
0.04495705
0.04029883
0.03574472
0.03167146
0.02822982
0.02543187
0.02323635
0.02157961
0.02036298
0.01943316
0.01860884
0.01777781
0.016928
0.01638573
0.01686094
0.01885055
0.02244128
0.02740924
0.03309974
0.03805022
0.04150955
0.043389
0.04324319
0.0393731
0.02501161
0.08489793
0.07066733
0.06132013
0.05470998
0.04942706
0.04465131
0.03979506
0.03522396
0.03121211
0.02785134
0.02512629
0.0229798
0.02133174
0.02006302
0.01900369
0.01798025
0.01692158
0.01586655
0.01520351
0.01567922
0.01775009
0.0214709
0.02663531
0.03261257
0.03796265
0.04180266
0.04401956
0.04415379
0.04045336
0.02573577
0.08492488
0.07070441
0.06133321
0.05466615
0.04929159
0.04442498
0.03946245
0.03485969
0.03087009
0.02755297
0.02487118
0.02275187
0.02109726
0.01976446
0.01856087
0.0173178
0.01601202
0.0147492
0.01400426
0.01453896
0.01673709
0.02060666
0.02595549
0.03218251
0.03786037
0.04201667
0.04449473
0.04482177
0.0412137
0.02621881
0.08493357
0.07071089
0.06131734
0.05460685
0.04916821
0.04424699
0.03922777
0.03459822
0.03061302
0.02731765
0.02466072
0.02255582
0.02088722
0.01948544
0.01812961
0.01665353
0.0150897
0.01362797
0.01284419
0.01347845
0.01581978
0.01982952
0.02533343
0.03176228
0.03770144
0.04211772
0.04480198
0.04527005
0.04172085
0.0265321
0.0849326
0.07070116
0.06128611
0.05453965
0.04905718
0.04409096
0.03903671
0.03439142
0.0304097
0.0271291
0.02448909
0.02239295
0.02070915
0.01924241
0.01774306
0.01604645
0.01424027
0.01260554
0.01181092
0.01254747
0.01501356
0.01913636
0.02476309
0.03135542
0.03749532
0.04212316
0.04497282
0.04554927
0.0420438
0.02672838
0.08492764
0.0706851
0.06124933
0.0544688
0.04894414
0.04392966
0.03885615
0.03421175
0.03024217
0.02697769
0.0243521
0.02226234
0.02056602
0.01904931
0.01744308
0.01558428
0.01359534
0.01182693
0.01101146
0.01180124
0.01433867
0.01853221
0.02424528
0.03096351
0.03726066
0.04206245
0.04504648
0.04570849
0.04223838
0.02684539
0.08492217
0.07066916
0.06121419
0.05439892
0.04882459
0.04373718
0.03867119
0.03405185
0.03010647
0.02686097
0.02424782
0.02216231
0.02045849
0.01891646
0.01726224
0.01533567
0.01326566
0.0114188
0.01054048
0.0112924
0.01381982
0.01802778
0.02378224
0.03058634
0.03701292
0.04196225
0.04505722
0.04578734
0.04234635
0.02690996
0.08491821
0.07065778
0.06118914
0.0543492
0.04874168
0.04361909
0.03854449
0.03394022
0.0300136
0.02678206
0.02417611
0.0220919
0.020387
0.01884926
0.01721573
0.01533175
0.01330631
0.01145452
0.01046431
0.01106935
0.01348801
0.01764006
0.02337356
0.03020822
0.03675514
0.04184178
0.04503149
0.04581525
0.04239745
0.02694076
0.08491674
0.07065331
0.06117861
0.0543271
0.04870309
0.04356012
0.03848425
0.03388872
0.02997094
0.02674412
0.02413826
0.02205235
0.02035342
0.01884994
0.01730641
0.01557663
0.01372069
0.01194067
0.01080086
0.01116182
0.01337535
0.01739927
0.02303841
0.02981956
0.03649816
0.04172187
0.04499058
0.04581286
0.04241133
0.0269498
0.08491814
0.0706566
0.06118435
0.05433632
0.04871494
0.04356694
0.03849869
0.0339037
0.02998233
0.02674973
0.02413728
0.02204816
0.02036225
0.01891573
0.01750959
0.01600388
0.01439305
0.01275787
0.01148161
0.01155164
0.01349922
0.01736004
0.02289964
0.02961848
0.03636329
0.04165166
0.04495537
0.0457931
0.04239862
0.02694317
0.08492228
0.07066724
0.06120546
0.05437593
0.04877873
0.04366046
0.0385926
0.03398332
0.03004567
0.02679845
0.02417477
0.02208257
0.02041471
0.01903409
0.01777491
0.01649738
0.0151309
0.01366528
0.01233121
0.01215877
0.01384369
0.01754283
0.02301111
0.02969815
0.03639486
0.04165071
0.04493312
0.0457585
0.0423603
0.026921
0.08492859
0.0706837
0.06123802
0.05443526
0.04887531
0.04381292
0.03873987
0.03411213
0.03015339
0.02688727
0.02425032
0.02215606
0.02050934
0.01919474
0.01806971
0.01698944
0.01583199
0.01452452
0.01319968
0.0128717
0.01435359
0.01792372
0.02334917
0.0300025
0.03657637
0.04170979
0.04491545
0.04570035
0.04228757
0.02687777
0.08493591
0.07070358
0.06127885
0.05451178
0.04899984
0.04399852
0.03892941
0.03428227
0.03030003
0.02701334
0.02436266
0.02226725
0.0206429
0.0193912
0.01838467
0.01747019
0.01648552
0.01531224
0.01403643
0.01363191
0.01497873
0.01845141
0.02384494
0.03046982
0.03684381
0.04179074
0.04487796
0.04559842
0.04216169
0.02680233
0.08494204
0.07072208
0.0613192
0.05458744
0.04911908
0.04416483
0.0391181
0.03447179
0.03047738
0.02717432
0.0245108
0.02241438
0.02081203
0.0196194
0.01871876
0.01794688
0.01710854
0.01604953
0.01484411
0.01442207
0.01568879
0.01907238
0.024385
0.03089708
0.03708371
0.04183771
0.04478563
0.04542232
0.04195354
0.02667715
0.08494344
0.07073271
0.06135192
0.05465774
0.04923985
0.04432985
0.0393213
0.03469196
0.03069289
0.02737403
0.0246953
0.02259523
0.02101252
0.01987513
0.01907163
0.01842746
0.01771909
0.0167625
0.01564109
0.01524383
0.01647215
0.0197717
0.02496513
0.03130832
0.03728522
0.04182226
0.04460342
0.04513283
0.04162224
0.0264762
0.08493446
0.07072568
0.06136739
0.05471801
0.04936842
0.04451795
0.03957326
0.03497272
0.03096629
0.0276225
0.02491885
0.02280739
0.02123884
0.02015203
0.01943943
0.01891406
0.01832717
0.01746907
0.01644417
0.0161049
0.01732855
0.0205511
0.02559895
0.0317268
0.03744611
0.04172122
0.0442941
0.04468177
0.04111257
0.02616216
0.08490664
0.0706868
0.06135201
0.05475994
0.049504
0.04474927
0.03991651
0.03535118
0.03132117
0.02793156
0.02518471
0.02304783
0.0214836
0.0204406
0.01981334
0.01940129
0.01893266
0.01817569
0.01726198
0.01701138
0.01826246
0.02141998
0.02630398
0.03217218
0.03756921
0.0415214
0.04382706
0.04401848
0.04035543
0.0256822
0.08484791
0.07059819
0.0612918
0.05477748
0.04964684
0.04503934
0.04039199
0.03585415
0.03177239
0.02830899
0.02549461
0.02331232
0.02173728
0.02072791
0.02017957
0.01987685
0.01952623
0.01887767
0.01809299
0.01796427
0.01928149
0.02240012
0.0271186
0.03269333
0.03769783
0.04125582
0.04321337
0.0431187
0.03928311
0.02496427
0.08474344
0.07044555
0.06118969
0.05479299
0.04983051
0.04541044
0.04097272
0.03646693
0.03232461
0.02876381
0.02585187
0.0235957
0.02198779
0.02099787
0.02052079
0.02032397
0.02009228
0.01956178
0.01892654
0.01895925
0.02039863
0.02353703
0.02812827
0.03340815
0.03798306
0.04108571
0.04259578
0.04207263
0.03789697
0.02392809
0.08458334
0.07024871
0.06112205
0.05493841
0.05022746
0.04604592
0.04179854
0.03731995
0.03306958
0.0293457
0.02627403
0.02389541
0.02222223
0.02123374
0.0208198
0.02072586
0.02061369
0.02021062
0.01974599
0.01998862
0.02163675
0.02491793
0.02951671
0.03460704
0.03880822
0.04145401
0.04243803
0.04130649
0.03648914
0.02258647
0.08439612
0.0701613
0.06138891
0.05562811
0.05132455
0.04747134
0.0434276
0.03882028
0.03424142
0.03016415
0.02679906
0.0242157
0.02243258
0.02142498
0.02106625
0.02107167
0.02107731
0.02080784
0.02053334
0.02104436
0.02303218
0.02668896
0.03162405
0.03687156
0.04095131
0.04329164
0.04381163
0.04200273
0.03620922
0.02151108
0.08437347
0.07076178
0.06287516
0.05792433
0.05426147
0.05081166
0.04682505
0.04161579
0.03616076
0.03134388
0.02746413
0.02456483
0.02262224
0.02157608
0.02126414
0.0213619
0.02147831
0.02134249
0.02127264
0.02211636
0.02462525
0.02905655
0.03503193
0.0413392
0.04582341
0.04819527
0.04859615
0.04650845
0.0399579
0.02316201
0.08530989
0.07381824
0.06784966
0.06432821
0.06169254
0.05883831
0.05452572
0.04671577
0.03908274
0.03290133
0.02824755
0.02493659
0.02280238
0.02170366
0.02142369
0.02159351
0.02180058
0.02179022
0.02193322
0.02316439
0.02639238
0.03217402
0.04061499
0.05063238
0.05609821
0.0586627
0.05937857
0.05803194
0.05245704
0.03371164
0.09012255
0.08421429
0.08174266
0.08045193