/*--------------------------------*- C++ -*----------------------------------*\
| =========                 |                                                 |
| \\      /  F ield         | OpenFOAM: The Open Source CFD Toolbox           |
|  \\    /   O peration     | Version:  2506                                  |
|   \\  /    A nd           | Website:  www.openfoam.com                      |
|    \\/     M anipulation  |                                                 |
\*---------------------------------------------------------------------------*/
FoamFile
{
    version     2.0;
    format      ascii;
    arch        "LSB;label=32;scalar=64";
    class       volScalarField;
    location    "400/airRegion";
    object      nut;
}
// * * * * * * * * * * * * * * * * * * * * * * * * * * * * * * * * * * * * * //

dimensions      [0 2 -1 0 0 0 0];

internalField   nonuniform List<scalar> 
85779
(
0.09218024
0.09255104
0.09235034
0.09211989
0.0918712
0.09143315
0.09024797
0.08640129
0.07499536
0.06844031
0.06648975
0.06707663
0.06951306
0.0736449
0.07876156
0.08319707
0.08456403
0.08028208
0.07238014
0.06585628
0.06386358
0.067618
0.07987342
0.08844414
0.09064676
0.09109752
0.09072138
0.08817661
0.07420021
0.02015473
0.09228572
0.09278406
0.09241178
0.09188982
0.0912852
0.09029181
0.08798302
0.08227394
0.07429282
0.0700588
0.06838268
0.06861659
0.07063205
0.07433575
0.07903537
0.08315572
0.08444213
0.08040096
0.07272603
0.06639049
0.06453164
0.06761517
0.07514215
0.08493221
0.08840384
0.08915247
0.08840101
0.08455387
0.06887091
0.01893276
0.09210893
0.09234025
0.09175197
0.09101729
0.09017206
0.08877687
0.08545626
0.07870674
0.07411009
0.07127645
0.06995526
0.07008352
0.07176181
0.07494722
0.07902505
0.08260211
0.08366249
0.07985302
0.07236394
0.06596523
0.06371417
0.06586224
0.07185832
0.08253984
0.0863576
0.08719643
0.08648856
0.08293831
0.06863626
0.01913966
0.0920641
0.09210608
0.09134607
0.09045465
0.08941857
0.08761529
0.08332646
0.07655356
0.07313663
0.07126749
0.07048857
0.07080464
0.07236545
0.07515141
0.0786291
0.081605
0.08234709
0.07867815
0.07123984
0.0645966
0.06189051
0.06351742
0.06933261
0.0812088
0.08518304
0.08610495
0.08559395
0.08257658
0.06943722
0.01930944
0.09208081
0.09203839
0.09117717
0.09017998
0.08899678
0.08679357
0.08132347
0.07528224
0.07222246
0.07080818
0.07040512
0.07092445
0.07245069
0.07492367
0.07784548
0.08019501
0.0805405
0.0769313
0.06950257
0.0626622
0.05976242
0.06138968
0.06761252
0.08050022
0.08461675
0.0856399
0.08532377
0.08270861
0.0702525
0.01942853
0.09210838
0.09203371
0.0911176
0.09005171
0.08876263
0.08640785
0.08093384
0.07392598
0.07128539
0.07024733
0.07011443
0.07076698
0.07223306
0.0743942
0.07675071
0.07842072
0.07828358
0.07467901
0.06731241
0.06045079
0.05766936
0.05963194
0.06642211
0.08009663
0.08436038
0.08548578
0.08531682
0.08293269
0.07065509
0.01951278
0.0921302
0.09204281
0.09109445
0.08997597
0.08857054
0.08578481
0.07884908
0.07331593
0.07098108
0.07008676
0.07000699
0.07062588
0.07192403
0.07370704
0.07543653
0.07634026
0.07562417
0.07198569
0.06478201
0.05810759
0.05569777
0.05816403
0.06552474
0.07983132
0.08423996
0.08545787
0.08539442
0.08314887
0.07093792
0.01957037
0.09214373
0.09204967
0.09107982
0.08991711
0.0883827
0.08512235
0.07761277
0.07345542
0.07130217
0.07029307
0.07007275
0.07053467
0.07158874
0.07293742
0.07397274
0.07401731
0.072631
0.06893146
0.06199991
0.05570293
0.05384475
0.05688663
0.06477884
0.07962401
0.08417029
0.08546873
0.08548125
0.0833224
0.07113948
0.01960942
0.09215054
0.09205158
0.0910673
0.08987613
0.08827111
0.08479148
0.07676855
0.07300548
0.07111056
0.0701962
0.06997623
0.07035715
0.07120183
0.07211852
0.07242552
0.07154665
0.06942876
0.06565336
0.0590801
0.05330077
0.05210242
0.05573596
0.06411214
0.07943624
0.0841133
0.08548218
0.08555118
0.08344891
0.07127844
0.01963558
0.09215296
0.09204956
0.09105488
0.08984467
0.0882003
0.08462772
0.07634016
0.07260083
0.07080591
0.06997348
0.06978923
0.07013168
0.07080361
0.07131391
0.07090268
0.06909943
0.06624664
0.06239114
0.05620759
0.05100111
0.05048723
0.05468478
0.06349635
0.07925409
0.08405464
0.0854861
0.08559887
0.08353511
0.07137075
0.01965269
0.09215296
0.09204522
0.09104167
0.08981412
0.08813261
0.08449055
0.07607634
0.072327
0.07057328
0.06978729
0.06962631
0.06993594
0.07045984
0.0706146
0.06956844
0.06694705
0.06343977
0.05950104
0.05365698
0.04895603
0.04904533
0.05373125
0.06292428
0.07905653
0.08398748
0.08547803
0.0856266
0.08359027
0.07142956
0.01966354
0.09215195
0.09203984
0.09102666
0.08977329
0.08801442
0.08420386
0.07584767
0.07217394
0.0704661
0.06970614
0.06954692
0.06981678
0.07021986
0.07010939
0.06860538
0.06539999
0.06141144
0.05739048
0.05176133
0.04736116
0.0478505
0.05288555
0.06238069
0.07885054
0.08391034
0.08545861
0.08563853
0.08362281
0.07146506
0.01967008
0.09215081
0.09203438
0.09100903
0.08970857
0.08777367
0.08356401
0.07588996
0.07229248
0.07055066
0.06975648
0.06956117
0.06978029
0.07010015
0.06984996
0.0681344
0.06467374
0.06046987
0.05640932
0.0508423
0.04642988
0.04700515
0.0521745
0.06182881
0.07859147
0.08380458
0.08542484
0.08563788
0.08363936
0.07148478
0.01967376
0.09215001
0.09203045
0.09099696
0.08967839
0.08772664
0.08363079
0.07569154
0.07227487
0.07060614
0.06981508
0.06959646
0.06978531
0.07008516
0.06985082
0.06821237
0.06488392
0.0608017
0.05678851
0.05113265
0.04635853
0.04665411
0.05168731
0.06121563
0.07805916
0.0835994
0.08536415
0.08562581
0.0836447
0.07149411
0.01967558
0.09214974
0.09202869
0.09099091
0.08965982
0.08767473
0.08352705
0.0756382
0.07229076
0.07064051
0.06984261
0.0696111
0.06980113
0.07015845
0.07011315
0.06886792
0.06609324
0.06248617
0.05859234
0.05267683
0.0472326
0.04695114
0.0516871
0.06074186
0.07663824
0.08316232
0.08526251
0.08560424
0.08364246
0.07149655
0.0196762
0.09215005
0.09202939
0.09099182
0.08965367
0.0876004
0.08313567
0.07574526
0.07233411
0.07063573
0.06982133
0.06959117
0.06981645
0.07030317
0.07059586
0.07000858
0.06813235
0.0652772
0.06155576
0.05521313
0.04882459
0.04763832
0.05189725
0.06055192
0.07374354
0.08270101
0.08518966
0.08558851
0.08363713
0.07149403
0.01967586
0.09215094
0.09203253
0.09100092
0.08968275
0.08761559
0.08261219
0.07583574
0.07229393
0.07057067
0.0697595
0.06954936
0.06983672
0.07049574
0.07119638
0.0713742
0.07053589
0.06856263
0.06505665
0.05818588
0.05076438
0.04853918
0.0522298
0.06066767
0.07513281
0.08286049
0.08520475
0.08558621
0.08363015
0.07148678
0.01967458
0.09215233
0.09203752
0.09101516
0.08973509
0.08790352
0.08396401
0.07581659
0.07225701
0.07053101
0.06971583
0.06952585
0.06988416
0.07072705
0.0718367
0.07275409
0.07291156
0.07180527
0.06853616
0.0611367
0.05273215
0.04951126
0.05271734
0.06121058
0.07484722
0.08304793
0.08526314
0.08559259
0.08361967
0.07147324
0.01967207
0.09215391
0.09204366
0.09103261
0.08978637
0.08805976
0.08434604
0.07591539
0.07222341
0.07048935
0.06969587
0.06954233
0.0699779
0.07099963
0.07248545
0.07405831
0.07508556
0.0747437
0.07168705
0.06382725
0.0546258
0.05056731
0.0532874
0.06187311
0.0780606
0.08363199
0.08536416
0.08560018
0.08360097
0.07145006
0.01966776
0.0921552
0.09204947
0.09104798
0.08982425
0.08815254
0.08453259
0.07614925
0.07240228
0.07062102
0.06980082
0.06964958
0.07014096
0.07132118
0.07314111
0.0752785
0.07703649
0.07732632
0.07442124
0.06619527
0.05647053
0.05185861
0.05420429
0.0626513
0.07876972
0.08384914
0.08541279
0.0855919
0.08356677
0.07141198
0.01966076
0.09215528
0.09205396
0.09106153
0.08985551
0.0882203
0.08466815
0.07644581
0.07270627
0.07086472
0.06998659
0.06981472
0.07034972
0.07167751
0.07380245
0.07643295
0.0788025
0.07959388
0.07675795
0.06823987
0.05821648
0.05324592
0.05521698
0.06333355
0.07906093
0.08395163
0.08542983
0.08556497
0.08351032
0.0713516
0.01964966
0.09215276
0.0920559
0.09107423
0.08988849
0.08829595
0.08484566
0.07690877
0.07311533
0.0711266
0.07014934
0.06995412
0.07054678
0.07203485
0.07445852
0.0775373
0.08042716
0.08160586
0.07875157
0.06999845
0.05985018
0.05466499
0.05627555
0.06399631
0.07929294
0.08402585
0.08542983
0.08551768
0.0834236
0.07125888
0.01963253
0.0921457
0.09205368
0.09108667
0.0899302
0.08840805
0.08516185
0.07768326
0.07351951
0.07123475
0.07015818
0.06998707
0.07068488
0.07236539
0.0750964
0.07859691
0.08193788
0.08340715
0.08045499
0.0715253
0.06139999
0.05612095
0.05740004
0.06469477
0.07951979
0.08409536
0.08542022
0.08544893
0.08329762
0.07112067
0.01960657
0.09213186
0.09204622
0.09110025
0.08998614
0.08857893
0.08571525
0.07871382
0.07360585
0.07109002
0.07006238
0.06998934
0.07081275
0.07268503
0.07571265
0.07960616
0.08333938
0.08501663
0.08190298
0.07286961
0.06290934
0.05765255
0.05863846
0.0654766
0.07975281
0.08417652
0.08541421
0.08536431
0.08312555
0.07092077
0.01956792
0.09210967
0.09203641
0.09112209
0.09005957
0.08877562
0.08641576
0.08089624
0.0740443
0.07138562
0.07029853
0.07018418
0.07102083
0.07300871
0.07628626
0.0805355
0.08460929
0.0864249
0.08310451
0.07405537
0.06440847
0.05930974
0.0600657
0.06641265
0.08004233
0.08430909
0.08544802
0.08528976
0.08291142
0.07063974
0.01951085
0.09208173
0.09204038
0.09118046
0.0901857
0.08900935
0.0868185
0.08132859
0.07540425
0.07231823
0.07088652
0.0705225
0.07122604
0.07324201
0.0767294
0.08131449
0.08569676
0.08759715
0.08403824
0.07505877
0.06587619
0.06111973
0.0617857
0.06764066
0.08046873
0.08457786
0.08560869
0.08530025
0.08268918
0.07023421
0.0194272
0.09206469
0.09210748
0.09134849
0.09045957
0.08943412
0.08759612
0.08277996
0.0767961
0.07313162
0.07127564
0.07058969
0.07111682
0.07315965
0.07688739
0.08184084
0.08653322
0.08848217
0.08465164
0.07578592
0.06718425
0.06300687
0.06387978
0.06939328
0.08119757
0.08515608
0.08608061
0.08557447
0.0825599
0.06942102
0.01930862
0.09210926
0.09234119
0.09175379
0.09102128
0.09018619
0.08884068
0.08571048
0.0788676
0.07355849
0.07102684
0.06996867
0.07037252
0.07254757
0.07662808
0.08203098
0.08705888
0.08902948
0.08487587
0.07607444
0.0680433
0.064636
0.0661975
0.07194347
0.08254476
0.08634162
0.08717924
0.08647377
0.08292524
0.06862455
0.01913923
0.09228588
0.0927846
0.09241295
0.09189249
0.09129253
0.09031619
0.08806667
0.08249185
0.0742087
0.070167
0.06853445
0.06893438
0.07141814
0.07597898
0.08188609
0.08724502
0.08920329
0.08467111
0.07578028
0.06807317
0.06530713
0.06793505
0.0752439
0.08494754
0.08839733
0.08914285
0.08839197
0.08454535
0.06886329
0.0189326
0.09218027
0.09255116
0.09235066
0.09212079
0.09187358
0.09143677
0.09022833
0.08614555
0.07435904
0.06890195
0.06691339
0.06747064
0.07030528
0.07526174
0.08151199
0.08705392
0.08893925
0.08407881
0.07501359
0.0672808
0.06454192
0.06792598
0.07995883
0.08845599
0.0906465
0.09109518
0.09071881
0.08817388
0.0741975
0.02015472
0.09228573
0.09278406
0.09241174
0.09188954
0.09128346
0.09028069
0.08785557
0.08151635
0.07443251
0.07015997
0.06844161
0.06865073
0.07066252
0.07438624
0.07913061
0.08331089
0.08464447
0.08060621
0.07288986
0.06649375
0.06458357
0.06763614
0.07514809
0.08493321
0.08840434
0.08915272
0.08840117
0.08455408
0.0688713
0.01893281
0.09172563
0.09311232
0.09345822
0.09289487
0.09175165
0.08986712
0.08652693
0.0812784
0.07590408
0.07217543
0.07028548
0.0701311
0.0717452
0.07504517
0.0793669
0.0832216
0.08446341
0.08066647
0.07319442
0.06694085
0.06508323
0.06784233
0.07391304
0.08077772
0.08460146
0.08534304
0.08310011
0.07539761
0.05487067
0.01432773
0.09096691
0.09183923
0.09231894
0.09185779
0.09060004
0.08847313
0.08497037
0.08072437
0.07667996
0.07365115
0.07191165
0.07159854
0.07284884
0.0756114
0.07929702
0.08259243
0.08359196
0.08003754
0.07283303
0.06661052
0.06447471
0.06654352
0.07142381
0.07713355
0.08058027
0.08108224
0.0783603
0.07016424
0.0504966
0.01374608
0.09065444
0.0909384
0.09103655
0.09034155
0.08889027
0.08661496
0.0831803
0.07943604
0.07624882
0.07391273
0.07256206
0.07235021
0.07343108
0.07576405
0.07882941
0.08150161
0.08216103
0.07875815
0.07170127
0.0653317
0.06277077
0.06421953
0.06844566
0.0738203
0.07718009
0.07779845
0.0754643
0.0682169
0.05020969
0.01410894
0.09057859
0.09056193
0.09032522
0.08934216
0.08764755
0.08515929
0.08176747
0.07819377
0.07540001
0.07349704
0.07248674
0.07244491
0.07346576
0.07546729
0.07795654
0.07997302
0.08020617
0.0768653
0.06989406
0.06336634
0.06052874
0.06173936
0.06591577
0.0715499
0.07513398
0.07610904
0.07441114
0.06820717
0.05133563
0.0144762
0.09058156
0.09044608
0.09001608
0.08882411
0.08691976
0.08418795
0.08054974
0.07703546
0.07449267
0.07287946
0.07211165
0.0721969
0.0731579
0.07484297
0.07674522
0.07804209
0.07775416
0.07441307
0.06755826
0.06100972
0.05818466
0.05954772
0.06405827
0.07019921
0.07414068
0.07551429
0.07436611
0.06888833
0.05255392
0.01473556
0.09059959
0.09042089
0.08988776
0.08855969
0.08648786
0.08350036
0.07974553
0.07634412
0.07395746
0.07247918
0.07180079
0.07189564
0.07272045
0.07403367
0.07527833
0.07575127
0.07483742
0.07145955
0.0648155
0.05845137
0.05592935
0.05771244
0.06272084
0.06940949
0.07371246
0.07543192
0.07468371
0.06965901
0.05355828
0.01490956
0.0906134
0.09041641
0.08982481
0.08840667
0.08620574
0.08297844
0.07925145
0.07607478
0.07377299
0.07230686
0.07160562
0.07162409
0.07224842
0.07312577
0.07362044
0.07314865
0.07151052
0.06808291
0.06176854
0.05579768
0.05381052
0.05616066
0.06170381
0.06890047
0.07352131
0.07551722
0.07504797
0.07030364
0.05430391
0.01502509
0.09061993
0.0904114
0.08978436
0.08831033
0.0860262
0.08263138
0.07875361
0.07565885
0.07346125
0.07205978
0.07137405
0.07133466
0.07175704
0.07216713
0.07183613
0.07032029
0.06789443
0.06442788
0.05854827
0.05313542
0.05183374
0.05480928
0.06086641
0.06850171
0.07339964
0.07561573
0.07534398
0.07077909
0.0548263
0.0151012
0.09062074
0.09040171
0.08975064
0.08824116
0.08590813
0.08241217
0.07841894
0.07530922
0.07315281
0.07179929
0.07113614
0.07105321
0.07128501
0.07122509
0.07004221
0.06745562
0.06424681
0.06076489
0.05536649
0.05058393
0.05001527
0.05360285
0.06012786
0.06814705
0.07328251
0.07567535
0.07554833
0.07110428
0.0551783
0.01515043
0.09061809
0.09038814
0.08971742
0.08818004
0.08581189
0.08224539
0.07818976
0.07506381
0.07292553
0.07159971
0.07094885
0.07082447
0.07088499
0.07040036
0.06844539
0.0649021
0.06100673
0.05751228
0.05253896
0.04831781
0.0483996
0.052513
0.0594304
0.06777353
0.07315023
0.07568793
0.07567135
0.071313
0.05540691
0.01518133
0.09061384
0.09037242
0.08968216
0.08811453
0.08570656
0.08208211
0.0780297
0.0749226
0.07280487
0.07149359
0.07084061
0.07067388
0.07059944
0.06980226
0.06729613
0.06307911
0.05867908
0.05514257
0.05044297
0.04655832
0.04707063
0.0515593
0.0587775
0.06739472
0.07299434
0.07565808
0.07573134
0.07143715
0.05554859
0.01519986
0.09060945
0.09035679
0.08964578
0.08804305
0.08560367
0.08203929
0.07804461
0.07494083
0.07281235
0.0714858
0.070809
0.07059982
0.07044333
0.06949272
0.06674232
0.06223841
0.05761116
0.05404029
0.04943121
0.0455388
0.04614169
0.05078858
0.05817247
0.06698837
0.07279856
0.07558939
0.07574476
0.07150209
0.05563013
0.01521022
0.09060618
0.09034511
0.08961845
0.08799025
0.08551859
0.08192062
0.07798412
0.07493986
0.07283177
0.07149985
0.07080404
0.07057245
0.07040762
0.06949139
0.06684359
0.06249654
0.0579999
0.05445431
0.04975289
0.0454651
0.04575381
0.05029951
0.05765444
0.06650928
0.0725317
0.07548102
0.07572428
0.07152657
0.05567035
0.01521531
0.09060483
0.09033992
0.0896055
0.08796389
0.08547649
0.08187649
0.07796874
0.07494591
0.07284166
0.07150187
0.07079537
0.07057132
0.07048526
0.06981348
0.06765821
0.06396201
0.05996498
0.05647063
0.05145767
0.04642084
0.04601739
0.05025114
0.05742244
0.06605346
0.07220097
0.0753464
0.07568424
0.0715248
0.05568202
0.01521692
0.09060569
0.09034225
0.08960959
0.08796897
0.08548118
0.08190919
0.07799765
0.07495011
0.07283032
0.07148136
0.07077561
0.07059054
0.07066197
0.07041617
0.06909198
0.06646977
0.06326475
0.05983615
0.05429604
0.0482224
0.04677901
0.05046672
0.05736921
0.06575158
0.07198772
0.07526172
0.07565088
0.07150899
0.05567329
0.01521593
0.09060861
0.09035155
0.08963005
0.0880073
0.08552244
0.08196116
0.07800415
0.07493105
0.07280077
0.07144896
0.07075618
0.07063266
0.07090166
0.07115189
0.07077129
0.06938091
0.06712201
0.06382315
0.05765531
0.05048433
0.04787365
0.05090225
0.05754054
0.06585659
0.07204215
0.07526811
0.07563603
0.07148278
0.05564536
0.01521235
0.09061306
0.09036588
0.08966109
0.08806867
0.08563712
0.08204746
0.07805151
0.07495286
0.07280135
0.07144153
0.07076453
0.07071059
0.07118111
0.07190525
0.07239633
0.07215318
0.07083237
0.06773901
0.06098411
0.05280549
0.04910334
0.05148823
0.05793608
0.06624858
0.07227834
0.07534706
0.07563251
0.07144
0.0555925
0.01520533
0.09061835
0.09038338
0.08969921
0.08813864
0.08574058
0.08214187
0.07808758
0.07496856
0.07282009
0.0714712
0.07081999
0.07083833
0.07149695
0.07263745
0.07386745
0.07459572
0.07410274
0.07122931
0.06399041
0.05501238
0.05042819
0.0522249
0.05845576
0.06682689
0.07262999
0.0754541
0.07561731
0.07136461
0.05550167
0.01519324
0.09062315
0.09040024
0.0897359
0.08820486
0.08584356
0.08230005
0.07826033
0.07512937
0.07296226
0.07159986
0.07095603
0.07103248
0.07185649
0.07335423
0.07519741
0.07672051
0.07691078
0.07421493
0.06659583
0.05707728
0.05189856
0.05322662
0.05918898
0.06737122
0.07288401
0.07551199
0.07555751
0.07123309
0.05535279
0.0151734
0.09062602
0.09041436
0.08977022
0.08826838
0.08594553
0.08247871
0.07851153
0.07539468
0.07320124
0.07180783
0.07115718
0.07128177
0.07225563
0.0740678
0.076429
0.07860246
0.07933519
0.07674152
0.06881694
0.0589781
0.05343194
0.05435318
0.0599617
0.06782057
0.07305408
0.07551003
0.07543298
0.07101918
0.05511927
0.01514175
0.09062511
0.09042409
0.08980488
0.08834088
0.08607174
0.08271495
0.07886397
0.07574226
0.07348635
0.07204051
0.07137847
0.0715546
0.07267742
0.07478158
0.07759703
0.08031195
0.08146445
0.07888708
0.07071225
0.06073125
0.05499318
0.05556059
0.06077174
0.06824817
0.07318536
0.07545455
0.07522804
0.07069173
0.05476512
0.01509241
0.0906182
0.09042852
0.08984532
0.08843881
0.08625452
0.08306374
0.07934303
0.07612015
0.07374567
0.07224077
0.07158191
0.07182603
0.07310585
0.07549143
0.07871804
0.08189224
0.08336122
0.08071939
0.07234973
0.06238357
0.05660267
0.05687325
0.06166409
0.06870932
0.07332117
0.0753625
0.07493474
0.07021746
0.0542435
0.01501679
0.09060373
0.09043151
0.08990599
0.08858826
0.08653013
0.08356595
0.07987246
0.0764641
0.07399927
0.07246864
0.07181999
0.07212211
0.07354313
0.07618874
0.07978821
0.08335489
0.08505299
0.08227942
0.07378275
0.06398457
0.05830755
0.05835366
0.06271032
0.06926177
0.07353626
0.07528932
0.07457697
0.06957715
0.05350116
0.01490222
0.0905849
0.09045476
0.09003094
0.0888472
0.08695466
0.08424719
0.0806303
0.07713592
0.07456792
0.07292812
0.07219242
0.07246887
0.07397135
0.0768377
0.08077375
0.08467891
0.08653307
0.08357558
0.07502987
0.06555594
0.06015645
0.06010917
0.06407492
0.0700967
0.07399327
0.07538764
0.07426853
0.06881277
0.05250165
0.01472951
0.09058112
0.09056874
0.090337
0.0893605
0.08767644
0.08520981
0.08184126
0.07829068
0.07548582
0.0735729
0.07260481
0.07275054
0.07427554
0.07734003
0.08160063
0.0858134
0.08776675
0.08458214
0.07605382
0.06704643
0.06213376
0.06222282
0.06595549
0.07148401
0.07501552
0.07600006
0.07432405
0.06813849
0.05128745
0.01447156
0.09065627
0.09094363
0.09104603
0.09035747
0.08891731
0.08664971
0.08326484
0.0795232
0.07630105
0.07396889
0.07267915
0.07266457
0.07423155
0.07754098
0.08216713
0.08669093
0.08870318
0.0852432
0.07674793
0.0682846
0.06406489
0.06463357
0.06850332
0.07378164
0.07708935
0.07770875
0.07538957
0.06815668
0.05016792
0.01410561
0.09096817
0.09184309
0.09232641
0.09187122
0.09062617
0.08852563
0.08508675
0.08070509
0.07659032
0.07362149
0.07198705
0.07189726
0.0736342
0.07731415
0.08239295
0.087254
0.0892942
0.08549407
0.07695881
0.06897257
0.0655201
0.06690426
0.07149767
0.07711635
0.08051756
0.0810158
0.07830252
0.07011604
0.05046291
0.01374384
0.09172635
0.09311466
0.09346306
0.09290449
0.09177178
0.0899114
0.08661976
0.0813959
0.07591908
0.07219501
0.0703588
0.07041511
0.07251649
0.07669515
0.08228117
0.08747453
0.08950673
0.08530891
0.07659512
0.06884428
0.06594208
0.06817041
0.07400555
0.08078243
0.0845675
0.08530463
0.08306575
0.07536749
0.05484818
0.01432648
0.09228588
0.0927846
0.09241305
0.09189286
0.09129298
0.09030763
0.0879113
0.08150541
0.07430548
0.07021777
0.06853238
0.06892284
0.07141911
0.07599985
0.0819284
0.0873057
0.08927238
0.08473142
0.07582443
0.06809977
0.06532174
0.06794309
0.07524765
0.08494817
0.08839767
0.08914301
0.08839206
0.08454551
0.06886365
0.01893264
0.09210895
0.09234031
0.09175208
0.09101736
0.09017136
0.08877213
0.08542846
0.07865382
0.07415484
0.07133549
0.07000326
0.07012507
0.07182321
0.07507479
0.0792787
0.08302248
0.08421749
0.08042532
0.07282743
0.06625992
0.06386089
0.06591823
0.07187138
0.0825403
0.08635706
0.08719626
0.08648888
0.08293908
0.06863744
0.01913979
0.09096696
0.09183939
0.09231925
0.09185825
0.09060056
0.0884735
0.08496861
0.08072816
0.07669672
0.07367165
0.07193004
0.07161825
0.07288434
0.07569052
0.07945735
0.08286014
0.08394763
0.08040813
0.07313764
0.06680749
0.06457431
0.06658365
0.07143749
0.07714066
0.08058206
0.08108268
0.07836099
0.07016559
0.05049826
0.01374639
0.08981115
0.08977742
0.09066186
0.09100065
0.09034383
0.08861733
0.08566522
0.0820732
0.07853215
0.07564388
0.07376838
0.0731488
0.07396457
0.07618311
0.07928068
0.08209062
0.08290581
0.07962842
0.07277905
0.06670061
0.06443964
0.06604125
0.06990433
0.07401192
0.07627755
0.0758192
0.07165572
0.06163984
0.0419528
0.01139676
0.08930422
0.08835425
0.08868799
0.08895279
0.08848555
0.0870694
0.08463938
0.08168458
0.07875093
0.07627922
0.07459199
0.07394185
0.07450698
0.07624885
0.07869167
0.08083835
0.08127585
0.07816543
0.07162216
0.06560416
0.06307887
0.06410215
0.06711508
0.07029152
0.0719159
0.07109748
0.06678639
0.05710442
0.03888097
0.01098495
0.08914608
0.08773514
0.08753319
0.08739364
0.08671299
0.08525733
0.08303967
0.08045545
0.07796723
0.07590367
0.07450936
0.07398438
0.07445678
0.07584256
0.07767745
0.07911993
0.0790843
0.07603931
0.06970575
0.0636503
0.06084664
0.06145014
0.06402137
0.06689818
0.06847335
0.06792511
0.06426418
0.05569682
0.03882738
0.01125769
0.08911578
0.08752768
0.08702235
0.08655601
0.08560198
0.08394568
0.08166558
0.07919298
0.0769402
0.07515265
0.07399661
0.07360159
0.07401805
0.07507923
0.07629014
0.07694839
0.07633405
0.07328429
0.06715629
0.06112803
0.05825194
0.05879857
0.06141707
0.06451742
0.06644257
0.06645947
0.0636219
0.05608178
0.03996969
0.01158884
0.08912007
0.08747258
0.08681869
0.0861524
0.08499107
0.08312884
0.08074165
0.07828675
0.07613522
0.07448396
0.07345071
0.07310655
0.07341618
0.07410056
0.07459601
0.07433746
0.07302989
0.06994558
0.06410434
0.05828201
0.05563188
0.05647713
0.05948226
0.06306822
0.06547991
0.06607592
0.06392532
0.05709212
0.04128209
0.01183868
0.08912773
0.08745897
0.08673023
0.08594703
0.08464736
0.08262158
0.08015699
0.07771168
0.07559999
0.0739996
0.0730048
0.0726402
0.07277839
0.07300035
0.07264233
0.07130229
0.06919869
0.06609515
0.06067219
0.05527549
0.05313351
0.05452207
0.05807003
0.06220157
0.06508207
0.06615695
0.06450291
0.05811111
0.04237893
0.01200892
0.08913112
0.08745014
0.08667875
0.08582633
0.08443941
0.08229636
0.07973288
0.07726317
0.07517157
0.0736054
0.07263056
0.07222289
0.0721527
0.07183395
0.07047763
0.06790259
0.06494812
0.0618868
0.05701677
0.05223721
0.05080463
0.05285433
0.0569695
0.06160153
0.06490669
0.06634907
0.06504032
0.05892312
0.04318826
0.01212117
0.08913007
0.08743739
0.08663696
0.08574067
0.08429902
0.08207897
0.07943966
0.07693225
0.07484048
0.07329298
0.07232817
0.07186971
0.07157591
0.07067166
0.06822461
0.06434774
0.06057655
0.05763793
0.05339163
0.04932281
0.04867902
0.05140112
0.05604537
0.06111679
0.06478377
0.06650386
0.06543814
0.05950004
0.04374716
0.01219345
0.08912617
0.08742076
0.08659666
0.08566783
0.08418228
0.08191279
0.07922814
0.07669579
0.07460215
0.07306565
0.07210403
0.07159476
0.0710913
0.06963837
0.06617151
0.06112544
0.05666972
0.05386732
0.05017505
0.0467442
0.04681095
0.05012054
0.05521538
0.06065984
0.06464506
0.06657995
0.0656917
0.05987847
0.04411475
0.01223855
0.08912105
0.08740242
0.08655642
0.08559849
0.08407557
0.08177487
0.07907457
0.07653843
0.07444958
0.07292005
0.07195537
0.07140181
0.07073947
0.06889075
0.06471142
0.05886776
0.05390554
0.05114189
0.04780381
0.0447547
0.04528967
0.04902273
0.05446485
0.06021385
0.06447195
0.06657932
0.06582757
0.06010743
0.04434426
0.01226538
0.08911606
0.08738515
0.08651871
0.08553327
0.08398034
0.08168409
0.07899526
0.07646474
0.07437784
0.07284527
0.07186825
0.07128071
0.07053404
0.0685055
0.06402729
0.05785865
0.05266455
0.04987786
0.04666352
0.04360846
0.04423308
0.04815824
0.05381298
0.05978113
0.06426365
0.06651688
0.065877
0.06023032
0.04447709
0.01228019
0.08911244
0.08737256
0.086491
0.08548506
0.0839093
0.08160661
0.07893335
0.07641917
0.0743392
0.07280274
0.07181297
0.07121176
0.0704709
0.0685013
0.06415969
0.05818056
0.05313216
0.05033496
0.04701962
0.0435265
0.04378061
0.04761815
0.05331961
0.05938937
0.06403179
0.06641177
0.06586817
0.06028107
0.0445434
0.01228726
0.08911094
0.08736716
0.08647857
0.0854626
0.08387572
0.08157189
0.07890631
0.07639836
0.07431797
0.07277349
0.07177387
0.07118704
0.07055645
0.06891976
0.06522856
0.06003126
0.05549623
0.05263225
0.04893397
0.04460704
0.04403313
0.0474999
0.05309189
0.05913273
0.06382203
0.06629579
0.0658283
0.06028533
0.04456391
0.01228935
0.08911188
0.08736994
0.08648375
0.08547017
0.08388539
0.08158423
0.07891558
0.07640054
0.07431084
0.07275523
0.07175184
0.07120864
0.07078234
0.06972549
0.06717273
0.06331535
0.05957458
0.05656385
0.05216493
0.04669785
0.04492483
0.04774715
0.05308488
0.05902314
0.06370656
0.06622022
0.06578602
0.06026148
0.04455123
0.01228784
0.0891151
0.08738037
0.08650537
0.08550642
0.08393574
0.08163402
0.0789537
0.07642576
0.0743229
0.07275673
0.07175712
0.07127611
0.07109148
0.07068527
0.06939136
0.06707306
0.06432678
0.06126259
0.05605359
0.04939285
0.0462949
0.04831456
0.05331524
0.05911942
0.06373992
0.06621292
0.06575318
0.06021423
0.04450711
0.01228275
0.08912007
0.08739661
0.08653894
0.08556296
0.08402133
0.08172776
0.07903702
0.07649225
0.0743728
0.07279628
0.07180526
0.07139225
0.07143922
0.07161595
0.07141376
0.07047524
0.06874626
0.06580879
0.05989519
0.0521773
0.04788706
0.04910366
0.05374206
0.05939828
0.06389898
0.06626041
0.06571881
0.06013255
0.04442209
0.01227283
0.08912604
0.08741645
0.08658046
0.08563224
0.08412172
0.08183209
0.07913415
0.07658516
0.07446249
0.07288542
0.07190948
0.07156417
0.0718154
0.07247282
0.07314081
0.07332479
0.07250438
0.06978171
0.06333058
0.05479056
0.04956723
0.05007501
0.05433044
0.05978807
0.0641186
0.06631595
0.06565019
0.05998955
0.04427525
0.01225553
0.08913178
0.08743637
0.08662316
0.08570481
0.08423257
0.08197647
0.07929968
0.07675886
0.07463401
0.07305296
0.072088
0.07180252
0.07222888
0.0732783
0.0746324
0.07570436
0.07563743
0.07312416
0.06627014
0.05715989
0.05130267
0.05124185
0.05509924
0.06026422
0.06432211
0.066321
0.06550384
0.05974648
0.04403498
0.0122268
0.08913594
0.08745376
0.086665
0.08578061
0.08435135
0.08215022
0.0795242
0.07700991
0.07488721
0.07329935
0.07234072
0.07210774
0.07268722
0.07406549
0.07597453
0.07775337
0.07828723
0.07592359
0.06875269
0.059289
0.05305239
0.05253751
0.05596811
0.06075657
0.06447986
0.06624684
0.06524315
0.05935853
0.04365997
0.01218059
0.08913693
0.08746654
0.08670755
0.08586893
0.08449704
0.08237728
0.07982751
0.07734521
0.07521838
0.07361615
0.07265873
0.072473
0.07319115
0.07485665
0.07723183
0.07958505
0.08058705
0.07829232
0.0708619
0.06122789
0.0548203
0.0539504
0.05693776
0.06128633
0.064616
0.06609434
0.06484261
0.05877736
0.04309757
0.01210806
0.08913318
0.08747458
0.08675842
0.08599011
0.08470681
0.08270484
0.08024711
0.07778148
0.07563299
0.07400498
0.07304113
0.07289464
0.07373737
0.0756591
0.07843773
0.08126691
0.08262594
0.08031894
0.07268132
0.06304425
0.05665106
0.05552942
0.05807765
0.06193568
0.06480779
0.06591007
0.06430858
0.05796674
0.04228887
0.01199641
0.08912486
0.08748648
0.08684414
0.08619169
0.08504546
0.0832066
0.08083726
0.0783738
0.07619249
0.07451861
0.07351948
0.07338077
0.07431756
0.0764615
0.0795933
0.08282169
0.08444432
0.08205289
0.07426697
0.06478976
0.05859838
0.05736246
0.05952056
0.06286463
0.06522939
0.06584393
0.06374012
0.05695384
0.0411962
0.01182748
0.08911976
0.08753942
0.08704405
0.08658964
0.085649
0.08401452
0.08175191
0.07928417
0.0770191
0.07522127
0.07410461
0.07390376
0.07488415
0.07721469
0.08066218
0.08423204
0.08604029
0.08350205
0.07562683
0.06646262
0.0606794
0.05954383
0.06146972
0.06436824
0.06622101
0.0662473
0.06344943
0.05595225
0.03988997
0.01157937
0.08914928
0.08774483
0.08755147
0.08742238
0.0867539
0.08531814
0.08311856
0.08054521
0.07805336
0.07598887
0.07464094
0.07430527
0.07529678
0.07780832
0.08156715
0.08544856
0.08738075
0.08463578
0.076704
0.06796198
0.06278955
0.06205396
0.06407203
0.06678448
0.06828193
0.06773604
0.06410697
0.05557724
0.03875398
0.01125002
0.08930676
0.08836225
0.08870359
0.08897811
0.08852314
0.08712504
0.08471402
0.081767
0.07882487
0.07635465
0.07472121
0.07426298
0.07532063
0.0780838
0.08220708
0.08640662
0.08841731
0.08539567
0.07737618
0.06906103
0.06461564
0.06458228
0.06715837
0.07020203
0.07175868
0.07093827
0.06665059
0.05699877
0.03881561
0.01097891
0.08981313
0.08978381
0.09067452
0.09102193
0.09037798
0.08867414
0.08574697
0.08213253
0.07855882
0.07567207
0.07386372
0.07345022
0.07475036
0.07791758
0.08250534
0.08705303
0.08910669
0.08572364
0.07750227
0.06946268
0.06565541
0.06643112
0.06995094
0.0739505
0.07616429
0.07570184
0.07155342
0.06155749
0.04189987
0.01139238
0.09096826
0.09184346
0.09232745
0.09187375
0.09063121
0.08853397
0.08507489
0.08080167
0.07668765
0.07363905
0.07196919
0.0718846
0.07364335
0.0773522
0.08246414
0.08735626
0.08941361
0.08560391
0.07704354
0.06902576
0.06554858
0.06691806
0.07150396
0.07711981
0.08051841
0.08101622
0.07830312
0.07011701
0.05046405
0.01374405