/*--------------------------------*- C++ -*----------------------------------*\
| =========                 |                                                 |
| \\      /  F ield         | OpenFOAM: The Open Source CFD Toolbox           |
|  \\    /   O peration     | Version:  2506                                  |
|   \\  /    A nd           | Website:  www.openfoam.com                      |
|    \\/     M anipulation  |                                                 |
\*---------------------------------------------------------------------------*/
FoamFile
{
    version     2.0;
    format      ascii;
    arch        "LSB;label=32;scalar=64";
    class       volVectorField;
    location    "400/airRegion";
    object      U;
}
// * * * * * * * * * * * * * * * * * * * * * * * * * * * * * * * * * * * * * //

dimensions      [0 1 -1 0 0 0 0];

internalField   nonuniform List<vector> 
85779
(
(-0.001367754 -0.001367736 -0.0212637)
(-0.001905844 -0.001905669 -0.02086465)
(-0.001944983 -0.001944152 -0.02022989)
(-0.001966353 -0.001963104 -0.01960537)
(-0.002279117 -0.002265886 -0.01929183)
(-0.00313469 -0.003115911 -0.0197909)
(-0.00440723 -0.004480226 -0.02143672)
(-0.002253576 -0.001789257 -0.02568796)
(0.004801267 0.004715678 -0.05236699)
(0.01472022 0.01440115 -0.07722557)
(0.0287467 0.02895198 -0.09372205)
(0.04726044 0.04756784 -0.1025344)
(0.06924173 0.06962624 -0.1028266)
(0.09355642 0.09410703 -0.0943215)
(0.1177296 0.118545 -0.07698276)
(0.1375797 0.1387251 -0.05163348)
(0.1474138 0.1488448 -0.02074973)
(0.1400112 0.1415275 0.01291077)
(0.1152873 0.1166354 0.03999234)
(0.08150831 0.08256171 0.05644513)
(0.04762234 0.04845548 0.0598764)
(0.02037073 0.02180217 0.05189275)
(0.001981942 0.00276192 0.03068549)
(-0.004789709 -0.00517651 0.01885161)
(-0.006381414 -0.006352232 0.01720352)
(-0.007700442 -0.007680443 0.0157428)
(-0.009477584 -0.009471292 0.0151061)
(-0.01171824 -0.01171723 0.01412037)
(-0.01357317 -0.01357428 0.01246497)
(-0.005031561 -0.005033575 0.003032423)
(-0.004365222 -0.001388959 -0.03819318)
(-0.006276876 -0.002171678 -0.03806235)
(-0.006378517 -0.002313143 -0.03761453)
(-0.005984596 -0.002236251 -0.03718339)
(-0.005572385 -0.00219507 -0.03735177)
(-0.004872209 -0.002359346 -0.03892252)
(-0.001474426 -0.001747731 -0.04127356)
(0.002979737 0.005974628 -0.05673456)
(0.007807365 0.01703404 -0.07518393)
(0.01846004 0.02616391 -0.0908443)
(0.03431593 0.0365834 -0.1027888)
(0.05400074 0.05013518 -0.1085545)
(0.07695827 0.06679087 -0.1069139)
(0.1020327 0.08566444 -0.09713248)
(0.126738 0.1047733 -0.07897676)
(0.1469544 0.1206523 -0.05316302)
(0.1570583 0.1284104 -0.02210945)
(0.1497069 0.1222863 0.01157099)
(0.1243158 0.1023357 0.0393466)
(0.08912717 0.0754619 0.05739173)
(0.05313328 0.04887765 0.06362869)
(0.02319976 0.02709959 0.05996865)
(0.004665619 0.009868153 0.05064058)
(-0.005818393 -0.001088286 0.03284496)
(-0.01508662 -0.004574732 0.03045805)
(-0.02127038 -0.006825144 0.02747425)
(-0.02758726 -0.008743707 0.02540846)
(-0.03603886 -0.0102709 0.02248674)
(-0.04982999 -0.009909457 0.01939824)
(-0.06716486 0.002035418 -0.002544903)
(-0.006982543 -0.001126924 -0.04580794)
(-0.01040175 -0.001927254 -0.04586961)
(-0.01070809 -0.002172059 -0.04580275)
(-0.009879804 -0.002170375 -0.04593469)
(-0.008520803 -0.002222072 -0.0470418)
(-0.005784901 -0.002464659 -0.04980339)
(0.002286657 -7.523055e-05 -0.05392642)
(0.006157552 0.009322959 -0.07912414)
(0.011098 0.01975051 -0.09332512)
(0.02386646 0.02843833 -0.105589)
(0.0413057 0.03781157 -0.1138118)
(0.06246053 0.04927574 -0.1164957)
(0.08668382 0.06306639 -0.1125511)
(0.1127049 0.07861945 -0.1011519)
(0.1380298 0.09438186 -0.08196326)
(0.1586288 0.1074718 -0.05557386)
(0.1689522 0.113698 -0.02422451)
(0.1616473 0.1082692 0.009647564)
(0.1355752 0.0911495 0.03826665)
(0.09891855 0.0682262 0.0578275)
(0.0607111 0.04544836 0.06632018)
(0.02816522 0.02623309 0.06484282)
(0.007002325 0.01078464 0.05771955)
(-0.008258025 0.000282165 0.03781184)
(-0.02352952 -0.003606966 0.03489306)
(-0.0347786 -0.006080904 0.03075786)
(-0.04614943 -0.008012767 0.02723482)
(-0.06071846 -0.00936546 0.02235187)
(-0.08267434 -0.009138495 0.01814011)
(-0.1043943 -0.001839548 -0.010298)
(-0.008996599 -0.0008111059 -0.04947882)
(-0.01381653 -0.001496217 -0.04951928)
(-0.0144446 -0.00178575 -0.0496855)
(-0.01325735 -0.001875322 -0.0503953)
(-0.01085328 -0.001965665 -0.05260086)
(-0.004846209 -0.002071425 -0.05638644)
(0.003669639 0.001480331 -0.07140369)
(0.007959871 0.01048643 -0.09272583)
(0.01569158 0.0193766 -0.1060488)
(0.03001694 0.02761336 -0.1170919)
(0.04881403 0.0363451 -0.1233453)
(0.07129422 0.04648306 -0.1239729)
(0.0966325 0.05827559 -0.1182213)
(0.1234404 0.07137664 -0.1054257)
(0.1492562 0.08458791 -0.08529682)
(0.1701679 0.09552366 -0.05836845)
(0.1806931 0.100574 -0.02671408)
(0.1734825 0.09561637 0.00736786)
(0.1468484 0.08051022 0.03674354)
(0.1089483 0.06049012 0.05734416)
(0.06867145 0.04059367 0.06710901)
(0.03327693 0.02368888 0.06652753)
(0.008628713 0.01030928 0.05965222)
(-0.01103221 0.0008401161 0.0387007)
(-0.0312356 -0.002881253 0.03515924)
(-0.0471206 -0.005219698 0.03014233)
(-0.06296429 -0.00694953 0.0256078)
(-0.08193141 -0.008015236 0.0196711)
(-0.1077354 -0.007709662 0.01581946)
(-0.126449 -0.002248737 -0.01493201)
(-0.01041005 -0.0005401684 -0.05132746)
(-0.01636305 -0.001060027 -0.05126293)
(-0.01734483 -0.001329732 -0.05153791)
(-0.01589262 -0.001450931 -0.05262071)
(-0.01253585 -0.001519881 -0.05573495)
(-0.00581155 -0.001293105 -0.0602443)
(0.005507087 0.002408584 -0.07388611)
(0.01224522 0.01078756 -0.1000937)
(0.02051065 0.01849908 -0.1148064)
(0.03627724 0.02586139 -0.1254262)
(0.05642496 0.03372261 -0.130735)
(0.07998993 0.04263184 -0.1300842)
(0.1061197 0.05276847 -0.1231036)
(0.1334059 0.06388278 -0.1093075)
(0.1594763 0.0750227 -0.0884957)
(0.1805637 0.08419651 -0.06117616)
(0.1912443 0.08826875 -0.02927302)
(0.1841682 0.08364935 0.004984083)
(0.1571448 0.0701672 0.03494938)
(0.1183649 0.05262765 0.05612995)
(0.07644894 0.03537183 0.06647214)
(0.03849352 0.02082082 0.06613613)
(0.0104296 0.009449206 0.05905736)
(-0.01316368 0.00108251 0.03775053)
(-0.03751092 -0.002252577 0.03364924)
(-0.05735356 -0.004288428 0.02805654)
(-0.07675686 -0.005720292 0.02299617)
(-0.09862456 -0.006494187 0.01671534)
(-0.1261897 -0.00610922 0.01367154)
(-0.1418316 -0.002029433 -0.0179952)
(-0.01133523 -0.0003413244 -0.05228365)
(-0.01810543 -0.0007049249 -0.05211032)
(-0.01937274 -0.0009257652 -0.05241606)
(-0.01770968 -0.001055036 -0.05379176)
(-0.01350237 -0.001128862 -0.05746451)
(-0.004007757 -0.0007483011 -0.06268889)
(0.006616141 0.003406993 -0.08470618)
(0.01375918 0.01098174 -0.1065017)
(0.0251804 0.01748808 -0.120724)
(0.04252765 0.02378018 -0.1312704)
(0.0637835 0.03059979 -0.1359589)
(0.08820547 0.03829951 -0.1345556)
(0.114867 0.04697201 -0.1268169)
(0.1423838 0.05639802 -0.1124058)
(0.1685195 0.06579784 -0.09120473)
(0.1896715 0.07348809 -0.06369391)
(0.2004559 0.07672177 -0.03165374)
(0.1935002 0.07236274 0.002699726)
(0.1662056 0.06030347 0.03305947)
(0.1268872 0.04503902 0.0544527)
(0.0838434 0.03028899 0.06495095)
(0.04387215 0.01802287 0.06459143)
(0.01285023 0.008502406 0.05729175)
(-0.01414178 0.001210366 0.03612442)
(-0.04197218 -0.0016568 0.03161712)
(-0.06509436 -0.003344645 0.02570841)
(-0.08725737 -0.004479207 0.02045822)
(-0.1110738 -0.00502565 0.01421563)
(-0.1395171 -0.004635148 0.01197069)
(-0.1525938 -0.001660635 -0.01998612)
(-0.01190811 -0.0002070632 -0.05279173)
(-0.019221 -0.0004472996 -0.05254648)
(-0.02068904 -0.0006190169 -0.05289161)
(-0.01882793 -0.000769605 -0.05447859)
(-0.01385402 -0.0009663465 -0.05872468)
(-0.004143699 -0.0009075238 -0.0642849)
(0.008523589 0.003856217 -0.08309071)
(0.01769626 0.01133388 -0.1097719)
(0.02942907 0.0165062 -0.1253165)
(0.04813347 0.02157879 -0.1354533)
(0.07056534 0.02728575 -0.1396199)
(0.09573121 0.0338166 -0.1376202)
(0.1227582 0.04116482 -0.1293764)
(0.1503471 0.04911138 -0.114619)
(0.1764343 0.05700266 -0.09326481)
(0.1975878 0.06340327 -0.06574013)
(0.208427 0.06589787 -0.03367142)
(0.2015172 0.06176407 0.0007098645)
(0.1740024 0.05104946 0.03127986)
(0.134439 0.03797 0.05260873)
(0.0907729 0.02561931 0.06301338)
(0.04939399 0.01549041 0.06255198)
(0.0160047 0.007612446 0.05514987)
(-0.01384379 0.001295969 0.03442879)
(-0.04461217 -0.001102409 0.02966758)
(-0.0704468 -0.002460442 0.02361347)
(-0.09477886 -0.003340799 0.01835311)
(-0.1199874 -0.003731598 0.01230007)
(-0.1489334 -0.003398955 0.01075015)
(-0.1601254 -0.001276705 -0.02132466)
(-0.01224143 -0.000118914 -0.05306689)
(-0.0198813 -0.0002635314 -0.05278725)
(-0.02145951 -0.0003716095 -0.05319507)
(-0.01941776 -0.0004667215 -0.05512616)
(-0.01362564 -0.0006254544 -0.06018502)
(-0.0001247055 -0.0004777181 -0.06618435)
(0.008299821 0.004825801 -0.09854912)
(0.0166729 0.01066259 -0.1157543)
(0.03290517 0.01465887 -0.1295396)
(0.05333002 0.0188462 -0.1386633)
(0.07675344 0.02372005 -0.142019)
(0.1025211 0.0292737 -0.1395021)
(0.129782 0.03547252 -0.1309149)
(0.1573411 0.0421211 -0.1159924)
(0.1833246 0.04867934 -0.09465077)
(0.2044567 0.05392831 -0.06723485)
(0.2153042 0.05575972 -0.03520472)
(0.2083196 0.05185844 -0.0008221671)
(0.180591 0.04249637 0.029796)
(0.1410286 0.03155992 0.05085349)
(0.097189 0.021486 0.06101482)
(0.05496535 0.01329566 0.06044857)
(0.01979289 0.006826994 0.05306999)
(-0.01241069 0.001348075 0.03294927)
(-0.04568094 -0.0006216051 0.02804927)
(-0.07378292 -0.001693972 0.02193629)
(-0.09986508 -0.002372168 0.01673607)
(-0.1261409 -0.00266368 0.01090147)
(-0.155439 -0.002417896 0.009896511)
(-0.1653404 -0.0009369337 -0.02223747)
(-0.01241714 -6.331878e-05 -0.05321252)
(-0.0202203 -0.0001391982 -0.05291365)
(-0.02181227 -0.0001853386 -0.05335159)
(-0.01956259 -0.0001886504 -0.05542064)
(-0.01322284 -8.414033e-05 -0.06077125)
(0.001354805 0.0005676204 -0.06672916)
(0.01054076 0.004165519 -0.1005356)
(0.01971167 0.008358648 -0.1172719)
(0.03707762 0.01204734 -0.1313113)
(0.05836009 0.01587292 -0.1401427)
(0.08245198 0.02010006 -0.1431531)
(0.1086079 0.02481366 -0.1403556)
(0.1359684 0.02999314 -0.1315938)
(0.163429 0.0354768 -0.1166412)
(0.1892943 0.04082533 -0.09541593)
(0.2104082 0.04501654 -0.06817301)
(0.2212199 0.04625228 -0.03620307)
(0.2140302 0.04264626 -0.001813564)
(0.1860927 0.03471095 0.02870699)
(0.1467347 0.02587879 0.04934537)
(0.1030716 0.01791706 0.05918141)
(0.06044999 0.01143068 0.05853242)
(0.02399388 0.006145699 0.0512643)
(-0.01013018 0.001379921 0.0317926)
(-0.04554985 -0.0002344082 0.0268277)
(-0.07556546 -0.001074428 0.02068279)
(-0.1030902 -0.001597011 0.01555024)
(-0.1302298 -0.001825535 0.00990387)
(-0.1598275 -0.001668759 0.009311055)
(-0.1688745 -0.0006545138 -0.02283711)
(-0.01249785 -3.216544e-05 -0.05328986)
(-0.02036128 -6.968037e-05 -0.05298331)
(-0.02190901 -8.598523e-05 -0.05343874)
(-0.01945131 -5.807687e-05 -0.05556493)
(-0.01265891 0.0001155221 -0.06097382)
(0.002719554 0.0009371785 -0.06697734)
(0.01285494 0.003778185 -0.1007611)
(0.02293805 0.006877691 -0.1176677)
(0.04107817 0.009944885 -0.1318696)
(0.06298381 0.01316124 -0.1406423)
(0.08752884 0.01668114 -0.1434907)
(0.1139227 0.02056266 -0.1405311)
(0.1413016 0.02477453 -0.1316766)
(0.1686412 0.02916997 -0.1167498)
(0.194404 0.03338405 -0.09567515)
(0.2155109 0.03657965 -0.0686181)
(0.2262508 0.03729923 -0.03670728)
(0.2187807 0.03412225 -0.002312137)
(0.1906977 0.02773115 0.02798431)
(0.1517078 0.02093421 0.04812932)
(0.108439 0.01487278 0.05762821)
(0.06570498 0.00984161 0.05693868)
(0.02833716 0.005549938 0.04984225)
(-0.007339948 0.001425166 0.0309707)
(-0.0446132 5.44743e-05 0.02596212)
(-0.07624522 -0.0006069755 0.01979367)
(-0.1049691 -0.001010068 0.01471163)
(-0.1328263 -0.001194662 0.009207471)
(-0.1626981 -0.0011086 0.008913424)
(-0.1712058 -0.0004380218 -0.02322448)
(-0.01252847 -1.839516e-05 -0.05333639)
(-0.02040083 -4.403765e-05 -0.05303559)
(-0.02188555 -6.71081e-05 -0.05351953)
(-0.01924437 -8.567472e-05 -0.05570046)
(-0.01208575 -3.150376e-05 -0.06109735)
(0.00403905 0.001008677 -0.06717402)
(0.01498131 0.003595708 -0.100932)
(0.02576508 0.005858159 -0.1179221)
(0.04450351 0.00818977 -0.1321225)
(0.06689336 0.01069813 -0.1407914)
(0.0917803 0.01345931 -0.1434831)
(0.1183438 0.01649915 -0.1403743)
(0.145721 0.0197691 -0.1314328)
(0.1729543 0.02312399 -0.116524)
(0.1986326 0.02625423 -0.09558289)
(0.2197249 0.02851247 -0.06870018)
(0.2303842 0.02883225 -0.03686451)
(0.2227008 0.02628014 -0.00251251)
(0.1946466 0.02154455 0.02748419)
(0.1561435 0.01665768 0.04716688)
(0.113333 0.01225095 0.05640173)
(0.07059471 0.008435207 0.05574207)
(0.03255124 0.00497167 0.0488835)
(-0.004351718 0.001418574 0.03052346)
(-0.0432467 0.0002345733 0.02536659)
(-0.07622121 -0.0002842867 0.01919408)
(-0.1059312 -0.0005916109 0.0141406)
(-0.1343822 -0.0007402331 0.008733818)
(-0.1645024 -0.000702999 0.008647422)
(-0.1726877 -0.0002793335 -0.02346895)
(-0.01253921 -1.5463e-05 -0.05337531)
(-0.02040773 -4.748966e-05 -0.05309918)
(-0.02184291 -0.0001099111 -0.05365847)
(-0.01907782 -0.0003089929 -0.05601124)
(-0.01160047 -0.0006813144 -0.06122035)
(0.00506886 0.001136295 -0.06818364)
(0.01661119 0.003874632 -0.1015056)
(0.02797242 0.005173361 -0.1186156)
(0.04711538 0.006608095 -0.1325622)
(0.06988662 0.008359398 -0.1409784)
(0.0950548 0.01034157 -0.1434442)
(0.1217619 0.01254131 -0.1401502)
(0.1491435 0.01489248 -0.1310942)
(0.1762876 0.01724917 -0.1161704)
(0.2018701 0.01935361 -0.09532612)
(0.2229123 0.02075939 -0.06860504)
(0.2335459 0.020824 -0.03689478)
(0.2259094 0.01908547 -0.002679843)
(0.1981685 0.01604866 0.0270342)
(0.1602122 0.01289454 0.04640297)
(0.1177769 0.009902875 0.05552248)
(0.07498567 0.007112099 0.05495586)
(0.03637494 0.004359858 0.04830927)
(-0.001523338 0.001298809 0.03031905)
(-0.04178184 0.0002933071 0.02500474)
(-0.07582905 -9.414193e-05 0.01882299)
(-0.1063199 -0.0003159771 0.01377303)
(-0.1352451 -0.0004290573 0.008424704)
(-0.1655778 -0.0004201913 0.008475029)
(-0.1735839 -0.0001676537 -0.02361743)
(-0.01254782 -1.439704e-05 -0.05341802)
(-0.02042449 -5.010367e-05 -0.05319121)
(-0.02185295 -0.0001330204 -0.05395355)
(-0.0189445 -0.0003446382 -0.05678825)
(-0.009605744 -0.0007384849 -0.06211038)
(0.004662767 0.0007231072 -0.08007642)
(0.01533067 0.003057915 -0.1046221)
(0.02913366 0.004009421 -0.1202492)
(0.04884686 0.004880318 -0.1334782)
(0.07190614 0.005943842 -0.1413594)
(0.09730067 0.007200078 -0.1435164)
(0.124126 0.008605992 -0.1400074)
(0.1515107 0.01008528 -0.1308204)
(0.178567 0.01150083 -0.1158613)
(0.2040246 0.0126549 -0.09508764)
(0.2249803 0.01330923 -0.0685275)
(0.2356826 0.01324498 -0.03700615)
(0.2284649 0.01243295 -0.003020924)
(0.2013748 0.01105706 0.02652833)
(0.1639752 0.009441897 0.04582107)
(0.121727 0.007671539 0.05503028)
(0.07871985 0.00580567 0.05462916)
(0.03955144 0.003755052 0.04811791)
(0.0008314101 0.001126866 0.03033331)
(-0.04050211 0.0002165082 0.0248448)
(-0.07533342 -2.607658e-05 0.01864197)
(-0.1063969 -0.0001560571 0.01356415)
(-0.1356739 -0.000228197 0.008239174)
(-0.1661725 -0.0002304765 0.008370855)
(-0.1740889 -9.218229e-05 -0.02370172)
(-0.01255497 -9.892617e-06 -0.0534516)
(-0.02044241 -3.479745e-05 -0.05326471)
(-0.02185936 -9.13599e-05 -0.05409732)
(-0.01883964 -0.0001725351 -0.05715876)
(-0.01044479 -0.0002745882 -0.06256277)
(0.005331673 0.000217725 -0.07584166)
(0.01707925 0.001490455 -0.1049562)
(0.02980067 0.002276296 -0.1212513)
(0.04972517 0.002827394 -0.1341127)
(0.07305302 0.003356933 -0.1417204)
(0.09859337 0.003988341 -0.1436241)
(0.1254795 0.004680584 -0.1399452)
(0.1528399 0.005359687 -0.1306604)
(0.1797872 0.005905542 -0.1156826)
(0.2050735 0.00618522 -0.09498376)
(0.2258968 0.006169377 -0.06860891)
(0.2367614 0.006048298 -0.03735774)
(0.2303562 0.006172841 -0.003695552)
(0.2042603 0.006352571 0.02587568)
(0.1674005 0.006093834 0.04539177)
(0.1250983 0.005403422 0.05496109)
(0.08162215 0.004449698 0.05488591)
(0.04178041 0.003249463 0.04853552)
(0.002360525 0.0009534802 0.03089434)
(-0.03957113 -9.717455e-05 0.02491362)
(-0.0749024 -7.965642e-05 0.0186528)
(-0.1063455 -8.412968e-05 0.01349175)
(-0.1358508 -0.0001047689 0.008150827)
(-0.166461 -0.0001054837 0.008318191)
(-0.1743407 -4.219939e-05 -0.02374327)
(-0.0125601 -2.988113e-06 -0.05346793)
(-0.0204554 -8.906442e-06 -0.05329846)
(-0.02187259 -1.81727e-05 -0.05417754)
(-0.01880283 -7.025448e-05 -0.05734886)
(-0.01032569 -0.0001399961 -0.0628135)
(0.005362935 0.0001999605 -0.07662919)
(0.01713905 0.0005067028 -0.1055646)
(0.02999312 0.0005551955 -0.1217517)
(0.05004666 0.0005899231 -0.1344306)
(0.0734619 0.0006840563 -0.1418797)
(0.09904291 0.000767458 -0.1436627)
(0.1259254 0.000816245 -0.139903)
(0.1532289 0.0007645512 -0.1305768)
(0.1800384 0.0005072685 -0.1156106)
(0.2050869 -3.033204e-05 -0.09500852)
(0.2256962 -0.0006802524 -0.06888584)
(0.2367715 -0.0008692407 -0.0380558)
(0.2315235 8.176499e-05 -0.004868401)
(0.20674 0.00166257 0.02492415)
(0.1704144 0.002597199 0.04500046)
(0.1278238 0.002812781 0.05526908)
(0.08351836 0.002586256 0.05587776)
(0.04238055 0.002114519 0.05001003)
(0.002470134 0.0006988054 0.03439469)
(-0.03889152 -0.0002187808 0.02537508)
(-0.07462627 -8.31548e-05 0.01898293)
(-0.1062803 -2.565441e-05 0.01356289)
(-0.1358896 -1.522699e-05 0.00814529)
(-0.1665528 -1.498279e-05 0.008306083)
(-0.1744262 -6.24815e-06 -0.02375546)
(-0.01256222 3.876293e-06 -0.05346275)
(-0.02045828 1.695112e-05 -0.05328183)
(-0.02188054 5.500823e-05 -0.05416984)
(-0.01882421 0.0001816727 -0.05730408)
(-0.009198676 0.000483324 -0.06282017)
(0.004791325 -0.0002847798 -0.08243216)
(0.01553594 -0.001307019 -0.1062954)
(0.02979979 -0.001429436 -0.1215677)
(0.04990074 -0.001621659 -0.1343072)
(0.07321704 -0.00195097 -0.1417478)
(0.09874066 -0.002381846 -0.1435663)
(0.1255689 -0.002929573 -0.1398224)
(0.1528014 -0.003650395 -0.130506)
(0.1794649 -0.004627603 -0.1155662)
(0.2042225 -0.005877903 -0.09505841)
(0.2245208 -0.007082749 -0.06921818)
(0.2357708 -0.007412911 -0.03891999)
(0.2318276 -0.005968402 -0.006379278)
(0.2086127 -0.003302835 0.02363612)
(0.1729105 -0.00127655 0.04441617)
(0.1300073 -0.000225719 0.05544688)
(0.08495312 0.0001500767 0.05656143)
(0.04308008 0.0002739108 0.05080204)
(0.002738245 0.0001124913 0.03527425)
(-0.03870846 -0.0001115494 0.02558036)
(-0.07450151 -1.731497e-06 0.01917418)
(-0.10619 5.765648e-05 0.01363849)
(-0.135817 7.236891e-05 0.008175396)
(-0.1664915 6.69446e-05 0.008317724)
(-0.1743824 2.593775e-05 -0.02374719)
(-0.01256309 7.971759e-06 -0.05344029)
(-0.02045872 2.9605e-05 -0.05322498)
(-0.02187654 8.014494e-05 -0.05395218)
(-0.01888878 0.0002587047 -0.05671041)
(-0.0110987 0.0005951767 -0.06219937)
(0.005511096 -0.0007905515 -0.07118286)
(0.01744277 -0.002495207 -0.1036918)
(0.02938625 -0.002998347 -0.1203374)
(0.049133 -0.003592013 -0.1335898)
(0.07233261 -0.004413876 -0.141385)
(0.09773288 -0.005374239 -0.1433576)
(0.1244755 -0.006509364 -0.1397039)
(0.151649 -0.007870037 -0.1304295)
(0.1782027 -0.009510649 -0.1155046)
(0.2026947 -0.0113857 -0.09503902)
(0.2226591 -0.01307298 -0.06939583)
(0.2339891 -0.01361014 -0.03955188)
(0.2311676 -0.01197389 -0.007649693)
(0.2094927 -0.008545342 0.02242499)
(0.1745117 -0.005511448 0.04379899)
(0.1314452 -0.003552346 0.05549534)
(0.08578134 -0.002511539 0.05697257)
(0.04277374 -0.001822842 0.05156458)
(0.002454831 -0.000638872 0.03812573)
(-0.03827159 7.919385e-05 0.02572589)
(-0.07448869 0.00012506 0.01929276)
(-0.1060734 0.0001542302 0.01373447)
(-0.1356303 0.0001739388 0.008237639)
(-0.1662755 0.0001606277 0.008350838)
(-0.1742078 6.276358e-05 -0.02371886)
(-0.01256556 1.098663e-05 -0.05341135)
(-0.0204712 3.772563e-05 -0.05316524)
(-0.02192114 9.744742e-05 -0.05381734)
(-0.01900121 0.0002222553 -0.05644167)
(-0.01129501 0.0003941326 -0.06206455)
(0.004829259 -0.0007258765 -0.07114402)
(0.01640804 -0.002905482 -0.1030729)
(0.02822232 -0.004210931 -0.1195002)
(0.04780566 -0.005411824 -0.1329422)
(0.07077677 -0.006723593 -0.1409701)
(0.09599169 -0.008234666 -0.1431273)
(0.1226375 -0.009980295 -0.1395936)
(0.1497879 -0.01199436 -0.1303652)
(0.1763124 -0.01429203 -0.115419)
(0.2006528 -0.01675799 -0.09490885)
(0.2203685 -0.01889247 -0.06931068)
(0.2317016 -0.01967442 -0.03972483)
(0.2296381 -0.01802101 -0.008283865)
(0.2092034 -0.0140415 0.02169693)
(0.1748999 -0.01000445 0.04343369)
(0.1318001 -0.006975453 0.05545792)
(0.08582753 -0.005065002 0.05686351)
(0.04353501 -0.003662561 0.05088802)
(0.002654119 -0.001215605 0.03361785)
(-0.0392745 0.0002292813 0.02571168)
(-0.07456334 0.0002475375 0.01924876)
(-0.1058837 0.0002763366 0.01380917)
(-0.1352837 0.0003097149 0.008342299)
(-0.1658567 0.0002867609 0.008411255)
(-0.1738628 0.0001126578 -0.02366429)
(-0.01256446 1.291339e-05 -0.05337161)
(-0.02047509 3.86865e-05 -0.05307834)
(-0.02195984 8.987005e-05 -0.05359831)
(-0.01921785 0.000194494 -0.05586323)
(-0.01186938 0.0003187604 -0.06130808)
(0.004402213 -0.0008422466 -0.0677969)
(0.01563079 -0.003443513 -0.1013596)
(0.02682275 -0.005281714 -0.1181433)
(0.04588717 -0.0070053 -0.1321159)
(0.06847613 -0.00887966 -0.1405045)
(0.09346307 -0.01100502 -0.1429091)
(0.1200201 -0.01341381 -0.1395146)
(0.1471966 -0.01612774 -0.1303223)
(0.1737872 -0.01912274 -0.1153094)
(0.1981154 -0.02221117 -0.09465858)
(0.2177063 -0.02481723 -0.06893695)
(0.2290022 -0.02587065 -0.03937878)
(0.2273192 -0.02423862 -0.008139385)
(0.2076756 -0.01975875 0.0216952)
(0.1738361 -0.01464649 0.04359845)
(0.1307577 -0.0103101 0.05573209)
(0.08469412 -0.007144555 0.05689572)
(0.0426751 -0.004589404 0.0506059)
(0.001984642 -0.001323585 0.03198022)
(-0.03992574 4.332868e-05 0.02576895)
(-0.07468826 0.0002829206 0.01926045)
(-0.1055599 0.0004268884 0.01397918)
(-0.1346886 0.0005004211 0.008521214)
(-0.1651408 0.0004673963 0.008515111)
(-0.1732712 0.0001844755 -0.02356983)
(-0.01255905 1.71501e-05 -0.05333532)
(-0.02048374 3.96302e-05 -0.05301965)
(-0.02203474 5.765165e-05 -0.05347656)
(-0.01948477 6.283231e-05 -0.05561839)
(-0.01247564 -4.401458e-05 -0.06098073)
(0.003356926 -0.0009186646 -0.0670039)
(0.01400976 -0.003524463 -0.100634)
(0.0246254 -0.006011583 -0.1175215)
(0.04317273 -0.008437876 -0.1316386)
(0.06537535 -0.01099441 -0.1402067)
(0.09012036 -0.01380063 -0.1427653)
(0.1165962 -0.01692795 -0.1394657)
(0.1438416 -0.02040244 -0.1302753)
(0.1705846 -0.02416514 -0.1151449)
(0.1950281 -0.02795235 -0.09426458)
(0.2146127 -0.0310967 -0.06827077)
(0.2258533 -0.03245089 -0.03853469)
(0.2242238 -0.03080439 -0.007235402)
(0.2048935 -0.02576466 0.02249513)
(0.1711903 -0.01946621 0.04448461)
(0.1280219 -0.01362766 0.05664076)
(0.08191764 -0.009021892 0.05766598)
(0.04018901 -0.005282899 0.05114801)
(0.0001027496 -0.00146345 0.03207914)
(-0.04090496 -0.000122982 0.0261287)
(-0.07480715 0.0003774046 0.01961229)
(-0.1049925 0.0006560532 0.01434095)
(-0.1337042 0.0007846153 0.008831044)
(-0.1639761 0.0007325306 0.008688747)
(-0.1723116 0.0002894133 -0.02341318)
(-0.01253012 3.260875e-05 -0.05328908)
(-0.02044918 7.125392e-05 -0.05296743)
(-0.02206734 9.093619e-05 -0.05339464)
(-0.01971142 7.216499e-05 -0.0554739)
(-0.01308368 -7.512604e-05 -0.06081628)
(0.002042608 -0.0008551262 -0.06671028)
(0.01197281 -0.003751606 -0.1003738)
(0.02189218 -0.006978121 -0.1171656)
(0.03983921 -0.01010228 -0.1312333)
(0.06157424 -0.01330138 -0.1398635)
(0.08601329 -0.01678072 -0.1425307)
(0.112376 -0.02065306 -0.1393117)
(0.1396998 -0.02494751 -0.1301115)
(0.1666499 -0.02956594 -0.1148367)
(0.1913018 -0.03415686 -0.09366894)
(0.2109703 -0.037933 -0.06729855)
(0.2221435 -0.03962396 -0.03723536)
(0.2203053 -0.03789504 -0.005668515)
(0.200871 -0.03217895 0.02401704)
(0.1669966 -0.02457214 0.04604473)
(0.1236608 -0.01711228 0.05813293)
(0.07766263 -0.01099189 0.05898308)
(0.03653795 -0.006115886 0.05221771)
(-0.002503505 -0.001619085 0.03259833)
(-0.04202387 -5.653836e-05 0.0267714)
(-0.07468687 0.0006299083 0.0202225)
(-0.1039386 0.001030158 0.01491778)
(-0.1320857 0.001208915 0.009308831)
(-0.1621255 0.001117352 0.008957353)
(-0.1707976 0.0004401183 -0.02316349)
(-0.01244736 6.504357e-05 -0.05320987)
(-0.02030262 0.0001450088 -0.0528939)
(-0.02196111 0.0001996273 -0.05329755)
(-0.01981596 0.0002218197 -0.05530163)
(-0.01366037 0.0001505125 -0.06054609)
(0.0006542946 -0.0004942621 -0.06634233)
(0.009855778 -0.004022418 -0.09983698)
(0.01900371 -0.00832973 -0.1164422)
(0.03618563 -0.01210903 -0.1303591)
(0.05727906 -0.01587417 -0.1390588)
(0.08126082 -0.02000774 -0.1418945)
(0.1074068 -0.02465753 -0.1388111)
(0.1347618 -0.02984567 -0.1296417)
(0.161925 -0.03542877 -0.1142423)
(0.1868333 -0.0409511 -0.09277887)
(0.2066395 -0.04547069 -0.06598714)
(0.2177299 -0.04754153 -0.03551679)
(0.2154794 -0.04564937 -0.003548444)
(0.1956198 -0.03910871 0.02612887)
(0.1613502 -0.0300457 0.04815708)
(0.1178545 -0.02083416 0.06009229)
(0.07221478 -0.01309375 0.06069885)
(0.03212097 -0.006994952 0.05361239)
(-0.005375209 -0.001709636 0.03334987)
(-0.04296204 0.0001545222 0.02769828)
(-0.07401178 0.001044235 0.02112402)
(-0.102062 0.001578253 0.01576197)
(-0.1294902 0.001811108 0.01000923)
(-0.1592556 0.001657018 0.009357951)
(-0.1684683 0.0006487732 -0.02277439)
(-0.01226697 0.0001207202 -0.05306153)
(-0.0199504 0.0002690123 -0.05276316)
(-0.02158473 0.0003825797 -0.05312993)
(-0.01964178 0.0004876764 -0.05498318)
(-0.01408713 0.0006139115 -0.05993192)
(-0.0008899086 0.0003716532 -0.06551455)
(0.008032217 -0.004306321 -0.09767949)
(0.01650273 -0.01015211 -0.1143919)
(0.03254855 -0.01439603 -0.1282743)
(0.05268021 -0.01861262 -0.1372765)
(0.07596185 -0.02340834 -0.1404754)
(0.1017223 -0.02891154 -0.1376684)
(0.1290076 -0.035108 -0.1286329)
(0.1563419 -0.04179785 -0.1131878)
(0.1815086 -0.04840486 -0.09148223)
(0.2014703 -0.05379686 -0.06429239)
(0.212456 -0.05629978 -0.03340768)
(0.2096403 -0.05416105 -0.000982526)
(0.1891386 -0.04663516 0.02868125)
(0.1543604 -0.03595216 0.0506661)
(0.1108202 -0.02484437 0.06238419)
(0.06588956 -0.01534598 0.06271964)
(0.02734014 -0.00788684 0.0553316)
(-0.008059 -0.001703905 0.0343771)
(-0.04330036 0.000495719 0.02893516)
(-0.07236188 0.001624097 0.022374)
(-0.09892324 0.002322181 0.01694785)
(-0.1254607 0.002625309 0.01100866)
(-0.1549117 0.002388847 0.009945831)
(-0.1649679 0.0009245827 -0.02217669)
(-0.011929 0.0002084309 -0.05278606)
(-0.01927773 0.000450774 -0.05252455)
(-0.02079158 0.0006227664 -0.05283505)
(-0.0190184 0.0007684021 -0.05440407)
(-0.01424051 0.000957551 -0.05862282)
(-0.003456187 0.0008989989 -0.06372638)
(0.007638975 -0.003930606 -0.08897822)
(0.01600692 -0.01099301 -0.1096535)
(0.02915144 -0.01604338 -0.1242531)
(0.04773157 -0.02108353 -0.1341188)
(0.07005249 -0.02677953 -0.1379838)
(0.09527459 -0.03331196 -0.1356295)
(0.1223811 -0.04068525 -0.1268707)
(0.149815 -0.04866095 -0.1115097)
(0.1752046 -0.0565332 -0.08967692)
(0.1953071 -0.06294541 -0.06218022)
(0.2061596 -0.0659443 -0.03094434)
(0.2026732 -0.06347832 0.001914931)
(0.1814187 -0.05480467 0.03150733)
(0.1461428 -0.04233359 0.05337834)
(0.1027949 -0.02918378 0.06482435)
(0.05902517 -0.01778186 0.06490877)
(0.02260809 -0.00881273 0.05733102)
(-0.01009813 -0.001648857 0.03575817)
(-0.04258872 0.0009465027 0.03051265)
(-0.06925235 0.002362821 0.02403128)
(-0.09398735 0.003268952 0.01855907)
(-0.1194125 0.003676542 0.01240644)
(-0.1484857 0.003358612 0.01080075)
(-0.159812 0.001259195 -0.02126927)
(-0.01135092 0.0003428516 -0.05227824)
(-0.01814781 0.0007091249 -0.0520924)
(-0.01944913 0.0009317947 -0.05237357)
(-0.01783798 0.001061485 -0.0537092)
(-0.0137429 0.001197724 -0.05735841)
(-0.004375265 0.001042057 -0.06228921)
(0.006227451 -0.003737323 -0.08452322)
(0.01345061 -0.01105349 -0.1056838)
(0.02484715 -0.01709013 -0.1197986)
(0.04213338 -0.02322589 -0.13)
(0.06345954 -0.03005066 -0.1343546)
(0.08802982 -0.0377794 -0.1325037)
(0.114835 -0.0465017 -0.1241707)
(0.1422636 -0.05596069 -0.1090769)
(0.1678001 -0.06530344 -0.08729634)
(0.1879963 -0.07290607 -0.05964983)
(0.1986807 -0.07647973 -0.02818851)
(0.1944672 -0.07360831 0.005009965)
(0.1724552 -0.06362078 0.03441616)
(0.1368201 -0.04919049 0.05605158)
(0.09402198 -0.03385962 0.06714378)
(0.05195362 -0.02041767 0.06700429)
(0.01829584 -0.009789519 0.05938567)
(-0.01113631 -0.001585114 0.03734139)
(-0.04039607 0.001479403 0.0323878)
(-0.06418261 0.00323136 0.0260956)
(-0.08665443 0.004396241 0.02065406)
(-0.1106322 0.004962533 0.01431927)
(-0.1391704 0.004589573 0.01202044)
(-0.1523564 0.001641348 -0.01994131)
(-0.0104198 0.0005420049 -0.05132136)
(-0.01638833 0.001065594 -0.05124599)
(-0.01738772 0.001340823 -0.05149822)
(-0.01595111 0.001475823 -0.05253094)
(-0.0125804 0.001658819 -0.05553614)
(-0.005931953 0.001816973 -0.06021257)
(0.005173366 -0.002461584 -0.0732831)
(0.01177962 -0.01117643 -0.09974268)
(0.01996679 -0.01841462 -0.1139058)
(0.03591795 -0.02544184 -0.1242126)
(0.0562614 -0.03326442 -0.1291544)
(0.08005492 -0.04221309 -0.1279993)
(0.1063894 -0.05242249 -0.1203641)
(0.1336479 -0.06358099 -0.1058187)
(0.1591997 -0.0746391 -0.084345)
(0.1794042 -0.08364025 -0.05676229)
(0.1898794 -0.08789003 -0.02524452)
(0.1849349 -0.08453159 0.008144586)
(0.1622638 -0.07303997 0.03719787)
(0.1265261 -0.05645283 0.05839778)
(0.08472819 -0.03879699 0.06897083)
(0.04494208 -0.02319613 0.06857303)
(0.01464838 -0.0107597 0.06103974)
(-0.01093535 -0.001479982 0.03885172)
(-0.03640754 0.00206653 0.03434758)
(-0.05673953 0.004173149 0.02841184)
(-0.07635177 0.005637822 0.02317962)
(-0.09832305 0.006432212 0.01681376)
(-0.1259509 0.006064749 0.01371822)
(-0.1416721 0.002012072 -0.01795906)
(-0.009000717 0.0008128411 -0.04947178)
(-0.01382563 0.001501374 -0.04950184)
(-0.01445546 0.001795354 -0.04964228)
(-0.01324721 0.001892999 -0.05022551)
(-0.01079269 0.002005134 -0.05213338)
(-0.006271195 0.002249757 -0.05603594)
(0.004226383 -0.0007868635 -0.06206564)
(0.009160345 -0.01067771 -0.09041262)
(0.01522984 -0.01978415 -0.1048312)
(0.0296326 -0.02747009 -0.1156432)
(0.04878487 -0.03604928 -0.1217417)
(0.07156886 -0.04625347 -0.121866)
(0.09716762 -0.0581489 -0.1154193)
(0.1240047 -0.07131181 -0.1018206)