/*--------------------------------*- C++ -*----------------------------------*\
| =========                 |                                                 |
| \\      /  F ield         | OpenFOAM: The Open Source CFD Toolbox           |
|  \\    /   O peration     | Version:  2506                                  |
|   \\  /    A nd           | Website:  www.openfoam.com                      |
|    \\/     M anipulation  |                                                 |
\*---------------------------------------------------------------------------*/
FoamFile
{
    version     2.0;
    format      ascii;
    arch        "LSB;label=32;scalar=64";
    class       volScalarField;
    location    "100/airRegion";
    object      epsilon;
}
// * * * * * * * * * * * * * * * * * * * * * * * * * * * * * * * * * * * * * //

dimensions      [0 2 -3 0 0 0 0];

internalField   nonuniform List<scalar> 
85779
(
0.008341792
0.007769217
0.007633959
0.007592927
0.007568436
0.007489055
0.007069109
0.00443356
0.00234724
0.001441358
0.0009914155
0.0007412127
0.0005957283
0.0005113327
0.0004636547
0.0004396568
0.0004381746
0.000473774
0.0005748331
0.0007947948
0.001235273
0.002169213
0.004615664
0.007150114
0.007528089
0.007620214
0.007691589
0.007879899
0.008987395
0.02347324
0.007936545
0.007000524
0.006708385
0.00659073
0.006496847
0.006254479
0.005211229
0.003021174
0.001886557
0.001274667
0.0009222581
0.0007103002
0.000581863
0.0005055713
0.00046145
0.0004380241
0.0004337154
0.0004605012
0.0005433588
0.0007279259
0.001089212
0.001778414
0.003147505
0.005854401
0.006404455
0.006590285
0.006727842
0.006984152
0.008079169
0.01945347
0.007947117
0.006929637
0.006573309
0.006409314
0.006257458
0.00583457
0.003606684
0.00233835
0.001590492
0.001139441
0.0008584248
0.0006796967
0.0005661732
0.0004952521
0.0004515575
0.0004260596
0.0004172382
0.0004347322
0.0005003174
0.0006537349
0.0009595223
0.00154817
0.002754351
0.005522875
0.006145778
0.006386622
0.006568101
0.006859153
0.007962706
0.02009367
0.007999491
0.006975082
0.006597183
0.006407885
0.006212464
0.005676857
0.003212208
0.002067672
0.001438369
0.001057935
0.0008155918
0.0006572476
0.0005533663
0.0004855215
0.0004410583
0.0004126972
0.0003989098
0.000407402
0.0004575075
0.0005851049
0.0008504383
0.001380997
0.002529634
0.005352432
0.006079992
0.006378588
0.006595906
0.006905846
0.007999244
0.02062447
0.008039545
0.007021737
0.006636164
0.006427611
0.006173984
0.005413134
0.002998812
0.001931283
0.001356275
0.001009754
0.0007878078
0.0006410839
0.0005428234
0.0004763957
0.0004305888
0.0003991807
0.0003804179
0.0003805014
0.0004170944
0.000522727
0.0007514535
0.001215625
0.002246837
0.004998656
0.006010291
0.006398107
0.00665011
0.006971289
0.008047871
0.02098925
0.00806463
0.007052779
0.006662875
0.006437207
0.006117085
0.004986452
0.002805782
0.001830407
0.001298222
0.000975157
0.0007668526
0.0006278398
0.0005332254
0.0004675054
0.0004203271
0.0003860358
0.0003624344
0.0003547377
0.000379712
0.0004669908
0.0006626217
0.001047413
0.001837407
0.003915792
0.005871973
0.006402982
0.006691039
0.007022555
0.008096346
0.02122931
0.008079024
0.007070426
0.006676768
0.006438136
0.006077216
0.00483229
0.002688091
0.001754798
0.001251252
0.0009461791
0.0007486961
0.0006157512
0.0005239847
0.0004588666
0.00041061
0.000373743
0.0003454071
0.0003305256
0.0003457122
0.0004189311
0.0005934549
0.0009368458
0.001587398
0.002908431
0.005771285
0.006396505
0.006712098
0.007054338
0.008132557
0.02137522
0.008086793
0.007079418
0.006681692
0.006427261
0.006004975
0.004528094
0.002513487
0.001664993
0.001202926
0.0009186606
0.00073192
0.0006044526
0.0005152176
0.0004508277
0.0004018789
0.0003627192
0.000329614
0.0003081388
0.0003150828
0.0003767407
0.000535565
0.000859309
0.001482583
0.002757797
0.00570749
0.006375178
0.00671451
0.007068453
0.008151617
0.02145144
0.008090581
0.007083141
0.006681201
0.006409008
0.005887347
0.003465223
0.00223687
0.00156318
0.001156582
0.0008942498
0.0007172656
0.000594402
0.0005073442
0.0004437987
0.0003944962
0.0003532162
0.0003151775
0.0002878153
0.0002879314
0.0003392384
0.000482114
0.0007848711
0.001385322
0.002643092
0.005602617
0.006332684
0.006700622
0.007068543
0.008157386
0.02147838
0.008091897
0.007083512
0.006678134
0.00639666
0.00584409
0.003325719
0.002153645
0.001516781
0.001129694
0.0008775522
0.0007059908
0.0005860853
0.0005006819
0.0004379856
0.0003885462
0.0003452302
0.0003021964
0.0002699286
0.000264613
0.0003063207
0.0004310821
0.0007035118
0.001258723
0.002458713
0.005393052
0.006257309
0.006671824
0.007058158
0.008153638
0.02147117
0.008091933
0.007082232
0.006674004
0.006386805
0.005820088
0.003290559
0.002123946
0.001494969
0.001114029
0.0008661441
0.0006974301
0.000579398
0.0004952245
0.0004332559
0.0003837483
0.0003385684
0.0002910569
0.0002551937
0.0002457905
0.0002789034
0.0003844076
0.0006156155
0.001081261
0.002084485
0.004739114
0.006108575
0.006627918
0.007040649
0.008143564
0.02144182
0.008091471
0.00708046
0.006669884
0.006378561
0.005802796
0.003273428
0.002108335
0.001481836
0.001103436
0.0008577813
0.0006908279
0.0005740703
0.0004907552
0.0004292681
0.000379684
0.0003331803
0.0002826702
0.0002446043
0.0002321913
0.0002584691
0.0003490127
0.0005481152
0.0009327236
0.001660579
0.003102457
0.005923944
0.006581424
0.007019603
0.008129565
0.02139926
0.008090948
0.007078865
0.006666515
0.006372265
0.00579038
0.003262284
0.002097933
0.001472647
0.001095758
0.0008515783
0.0006858228
0.0005698897
0.000487052
0.000425785
0.0003762363
0.0003294245
0.0002781092
0.0002389501
0.000224037
0.0002447087
0.0003246631
0.0005063808
0.000862456
0.001535161
0.002872802
0.005850899
0.006545281
0.006998399
0.008114188
0.02135209
0.008090573
0.007077776
0.006664288
0.006368215
0.005782567
0.003255199
0.002091137
0.001466547
0.001090627
0.0008473904
0.0006823364
0.000566772
0.0004840034
0.0004226996
0.0003733904
0.0003274856
0.0002777429
0.0002383716
0.0002211633
0.0002368693
0.0003083946
0.000478422
0.0008210331
0.001480194
0.002807785
0.005805664
0.006516512
0.006980082
0.008100447
0.0213095
0.008090405
0.007077288
0.006663287
0.006366417
0.005779181
0.003252143
0.002088172
0.001463828
0.001088263
0.0008453455
0.0006804448
0.0005647788
0.0004816466
0.0004199341
0.0003708151
0.0003267475
0.000280745
0.0002421892
0.0002231203
0.0002347256
0.0002998548
0.0004617476
0.0007961601
0.001449278
0.002774618
0.005774705
0.006497651
0.006968201
0.008091544
0.02128164
0.008090501
0.007077479
0.006663605
0.006366941
0.005780183
0.003252931
0.00208889
0.001464433
0.001088678
0.0008455007
0.0006802567
0.0005641017
0.0004802713
0.0004177934
0.0003685337
0.0003263594
0.0002851164
0.0002487758
0.0002289317
0.0002379468
0.0002994947
0.000457615
0.0007888578
0.001439897
0.002764495
0.005765409
0.00649292
0.00696563
0.00808991
0.02127732
0.008090851
0.007078331
0.006665204
0.006369719
0.005785446
0.003257448
0.002093176
0.001468259
0.001091797
0.000847826
0.0006818145
0.0005649031
0.0004802392
0.0004169295
0.0003674336
0.0003267123
0.0002895695
0.0002561935
0.0002371174
0.0002456785
0.0003068792
0.0004659596
0.0007993674
0.001452304
0.002777809
0.005781477
0.006503315
0.006972803
0.008095784
0.02129731
0.00809139
0.007079738
0.006667944
0.00637461
0.005794899
0.0032658
0.002101038
0.001475199
0.001097479
0.0008522179
0.0006850862
0.000567255
0.0004817891
0.0004178212
0.0003681966
0.0003284864
0.0002942519
0.0002638118
0.0002466198
0.000256774
0.0003208602
0.0004852376
0.0008255228
0.001484268
0.0028122
0.005814017
0.00652536
0.00698744
0.008107129
0.02133347
0.00809206
0.0070816
0.006671726
0.006381602
0.005808821
0.003278503
0.002112466
0.001484955
0.001105438
0.0008584998
0.0006900001
0.0005711648
0.0004850033
0.0004206319
0.0003710625
0.0003320832
0.000299742
0.0002718618
0.0002572741
0.0002707747
0.0003406598
0.0005146943
0.0008681635
0.001542137
0.002882572
0.005860362
0.006554828
0.007006079
0.008120937
0.02137609
0.008092609
0.007083508
0.006676028
0.006390287
0.00582811
0.003302454
0.002131737
0.001499428
0.001116421
0.0008669404
0.0006966418
0.0005766522
0.0004898709
0.000425321
0.0003759842
0.000337613
0.0003065369
0.0002809083
0.0002695274
0.0002882176
0.0003676977
0.0005593047
0.0009453032
0.001687326
0.003156626
0.005938517
0.006590031
0.007025357
0.008134205
0.02141617
0.008092567
0.007084728
0.006680019
0.006400767
0.005860725
0.003394736
0.00218473
0.001528241
0.001133971
0.0008788207
0.0007054325
0.0005838026
0.0004963326
0.0004317505
0.0003828067
0.0003450529
0.0003149789
0.000291566
0.0002841759
0.0003104703
0.0004056759
0.0006322038
0.001110387
0.002171057
0.004969061
0.006144147
0.006635088
0.007042462
0.008144102
0.02144495
0.008091163
0.007084136
0.006682846
0.006417155
0.005945818
0.003914988
0.002371137
0.001598057
0.001166182
0.0008967768
0.0007171707
0.0005927446
0.0005042615
0.0004396965
0.0003913079
0.0003543097
0.0003252908
0.0003043879
0.0003020158
0.0003383784
0.0004539145
0.0007207229
0.001278625
0.002489914
0.00543572
0.006266584
0.006670831
0.007053484
0.00814793
0.02145277
0.008087279
0.007080231
0.00668281
0.006430932
0.006008743
0.00412666
0.002519019
0.001679464
0.001209613
0.0009209753
0.0007320493
0.0006033794
0.0005133785
0.0004488161
0.0004011819
0.0003652194
0.0003375928
0.0003198031
0.0003235819
0.0003715784
0.0005071292
0.0008038563
0.001401339
0.002656123
0.005609303
0.006328186
0.006689643
0.007054617
0.008142662
0.02142755
0.0080794
0.00707104
0.006677577
0.006440213
0.006068464
0.004345254
0.002666054
0.001763241
0.001256696
0.0009482345
0.0007488939
0.0006151265
0.0005232028
0.0004586422
0.0004120244
0.0003775167
0.0003518566
0.0003380271
0.0003491948
0.0004100029
0.0005642629
0.0008824439
0.001498822
0.002762456
0.005698839
0.006358551
0.006690978
0.007042094
0.008124484
0.02135426
0.008064882
0.007053153
0.006663491
0.006441031
0.006140609
0.005081717
0.002861961
0.001851679
0.001305449
0.0009771992
0.0007669856
0.0006274883
0.0005332455
0.0004686671
0.0004233631
0.0003908221
0.0003678604
0.0003590025
0.0003789418
0.0004538755
0.0006265636
0.0009633233
0.001594481
0.002859821
0.00574607
0.006365842
0.006673125
0.007012246
0.008089545
0.02121224
0.008039726
0.007021978
0.006636553
0.006431786
0.006205324
0.005592001
0.003076575
0.001955239
0.001362984
0.001011183
0.0007876485
0.0006408168
0.0005433754
0.0004785309
0.0004347493
0.0004046658
0.000385172
0.0003823924
0.0004127803
0.0005042184
0.0006992424
0.001065343
0.001742274
0.003061114
0.005788073
0.006355069
0.006635134
0.006963327
0.0080438
0.02097699
0.007999615
0.00697526
0.006597345
0.006408838
0.006220498
0.00571609
0.003266492
0.002089834
0.001444999
0.001059159
0.0008151933
0.0006569259
0.0005541862
0.0004882358
0.0004458668
0.0004185226
0.0004031447
0.0004075952
0.000450652
0.0005633026
0.0007932034
0.001229221
0.00209302
0.003885616
0.005894432
0.006341771
0.006584096
0.006899941
0.007996664
0.0206165
0.007947171
0.006929719
0.006573358
0.006409609
0.006262048
0.005869142
0.003814582
0.002403561
0.001604915
0.001141401
0.0008576238
0.0006790409
0.0005669642
0.000498178
0.0004565673
0.0004318217
0.0004208937
0.0004336304
0.0004918567
0.0006310874
0.0009060719
0.001427082
0.002507558
0.005188365
0.006056702
0.00636236
0.006559592
0.006854866
0.007960798
0.02008915
0.007936565
0.007000568
0.006708432
0.006590754
0.006497896
0.006273236
0.005439102
0.003059155
0.001883604
0.001270393
0.0009189906
0.0007085875
0.0005822674
0.0005083778
0.0004662531
0.0004433051
0.0004365767
0.0004581973
0.0005335843
0.0007042278
0.001034574
0.001653719
0.002903068
0.005744177
0.006368841
0.00657815
0.006722543
0.006981125
0.008077659
0.01945121
0.008341794
0.007769222
0.007633956
0.007592892
0.007568427
0.007490554
0.007098197
0.005112695
0.002356576
0.001431393
0.0009854974
0.000738284
0.0005954522
0.0005136184
0.0004679527
0.0004444559
0.0004405977
0.0004706926
0.0005633104
0.0007648434
0.001148379
0.00187053
0.003371695
0.0070366
0.007511665
0.007616364
0.00768969
0.007878521
0.008986647
0.02347296
0.007936758
0.007001406
0.006710428
0.006595254
0.006512304
0.006337432
0.005700376
0.003178483
0.001935074
0.001290927
0.0009273697
0.0007109218
0.0005803525
0.0005028705
0.0004580617
0.0004342963
0.0004301344
0.0004582498
0.0005447184
0.0007364153
0.001108384
0.001810418
0.00319579
0.005936051
0.006448633
0.006621078
0.006751109
0.007001336
0.008089742
0.01950507
0.007257617
0.005604984
0.004927071
0.004596566
0.004352712
0.004019949
0.003375752
0.002356666
0.001627085
0.001162908
0.0008695323
0.0006837818
0.0005678304
0.0004974488
0.0004556495
0.0004322121
0.0004253674
0.000445083
0.00051348
0.0006695218
0.0009687736
0.00149431
0.002365837
0.003581102
0.00416742
0.004473806
0.004689767
0.004955898
0.005604276
0.008476163
0.007212182
0.005356466
0.004496628
0.004034432
0.00368825
0.003278468
0.002573881
0.00190512
0.001400877
0.001051023
0.000814429
0.0006566525
0.0005534766
0.0004874664
0.000445598
0.0004199459
0.0004087987
0.000419578
0.0004705486
0.000593453
0.0008314198
0.00124299
0.001905548
0.002821125
0.003391901
0.003753064
0.004019552
0.004310835
0.004907661
0.007433633
0.007261259
0.005369438
0.004440225
0.003908863
0.003494254
0.003027245
0.002292811
0.00170288
0.001278229
0.0009818139
0.0007770182
0.0006367137
0.0005417686
0.0004780602
0.0004350207
0.0004064255
0.0003905624
0.0003927514
0.0004283957
0.0005245338
0.0007190217
0.0010652
0.001643357
0.002499183
0.003120784
0.003551233
0.003878573
0.004227615
0.00492179
0.008002021
0.007305683
0.00541769
0.004463534
0.003893336
0.003422404
0.002884846
0.00215826
0.0016029
0.001212112
0.0009409563
0.0007528607
0.0006224038
0.0005320736
0.0004691628
0.000424455
0.00039278
0.0003722069
0.0003664443
0.0003891413
0.0004642282
0.000626284
0.0009245961
0.001438974
0.002255253
0.002990827
0.003514282
0.003903667
0.004301464
0.005070108
0.008607126
0.007333926
0.005453822
0.004488812
0.003893612
0.003378425
0.002768858
0.002064876
0.001537226
0.001168314
0.0009127703
0.0007350249
0.0006106905
0.0005231167
0.0004603909
0.0004140621
0.0003795082
0.0003543452
0.0003412519
0.0003530962
0.0004116459
0.000548816
0.0008077874
0.001253294
0.001978793
0.002879046
0.003507772
0.003952875
0.004385028
0.005196366
0.009025197
0.007349628
0.005474251
0.004502332
0.003890032
0.003348524
0.002699977
0.001999028
0.00148717
0.001133636
0.0008897155
0.0007197123
0.0005998957
0.0005143493
0.0004517973
0.0004042179
0.0003671082
0.0003373953
0.0003175158
0.0003203197
0.000365973
0.0004852304
0.0007204344
0.001131401
0.001805871
0.00278954
0.003492442
0.003981521
0.004439736
0.005276462
0.00927576
0.007357399
0.005483472
0.00450518
0.003877064
0.003309313
0.002605378
0.00192271
0.001436167
0.001100964
0.0008687244
0.0007056855
0.0005896971
0.0005059353
0.000443794
0.0003954323
0.0003560282
0.0003215954
0.0002954772
0.0002908908
0.0003261266
0.00043052
0.0006473815
0.001039412
0.001699384
0.002687523
0.003451127
0.003980224
0.004462177
0.00531589
0.009402396
0.007360531
0.005485939
0.004501514
0.003858677
0.003263052
0.002469487
0.001837636
0.001386919
0.001071783
0.0008504584
0.0006933205
0.0005804747
0.0004983241
0.0004368523
0.0003881393
0.0003465395
0.0003070058
0.0002753538
0.0002650288
0.0002916854
0.0003819873
0.0005788093
0.0009478577
0.001588195
0.00256812
0.003379132
0.003950539
0.004457801
0.005325121
0.009440918
0.007361099
0.005484814
0.00449546
0.003843456
0.003236301
0.002421916
0.001797178
0.001358165
0.001052094
0.0008367054
0.0006832364
0.0005726178
0.0004918491
0.0004311993
0.0003824377
0.0003385965
0.0002936605
0.0002575399
0.0002431378
0.0002627547
0.0003391795
0.0005121552
0.0008466619
0.001446611
0.002405201
0.003267978
0.003895474
0.004433148
0.005313154
0.009417873
0.00736043
0.005482082
0.004488711
0.003830662
0.003218827
0.002399999
0.001776317
0.00134099
0.001038721
0.0008264054
0.0006751908
0.0005661602
0.0004865232
0.0004266323
0.0003779111
0.0003318785
0.0002819905
0.0002428672
0.0002258416
0.0002398188
0.0003033997
0.0004506329
0.0007379163
0.001257855
0.002129059
0.003104519
0.003819699
0.004394848
0.005287291
0.009355378
0.007359343
0.00547899
0.004482295
0.003819665
0.003205596
0.002385894
0.001762768
0.001329137
0.001028919
0.000818508
0.0006688315
0.0005609406
0.0004821041
0.0004226852
0.0003739127
0.0003262696
0.0002731847
0.0002325221
0.0002137434
0.0002232464
0.0002766991
0.0004041247
0.0006546769
0.001103491
0.001852249
0.00294272
0.003741309
0.004350002
0.005252944
0.009269639
0.007358306
0.005476289
0.004476973
0.00381051
0.003195477
0.00237567
0.00175302
0.001320499
0.001021671
0.0008125851
0.0006639586
0.0005567811
0.0004783623
0.0004191455
0.0003704325
0.0003224477
0.0002686816
0.000227427
0.0002070514
0.0002125881
0.0002580034
0.0003715863
0.0006012214
0.001020872
0.001735688
0.002819998
0.003671161
0.004304606
0.005215765
0.009175989
0.007357572
0.005474421
0.004473346
0.00380432
0.003188716
0.002368879
0.001746555
0.001314771
0.001016851
0.0008085866
0.0006605265
0.0005536039
0.0004751942
0.0004159685
0.0003676313
0.0003208424
0.0002689848
0.000227729
0.0002055929
0.0002073332
0.0002459945
0.0003489789
0.0005643322
0.0009675587
0.001665605
0.002729134
0.003613646
0.004265333
0.005182568
0.009091484
0.007357253
0.0054736
0.004471749
0.00380161
0.003185798
0.002365952
0.001743743
0.001312229
0.001014634
0.0008066123
0.0006586051
0.0005514753
0.0004726248
0.0004129973
0.0003649877
0.0003206159
0.0002731331
0.0002326741
0.0002088449
0.0002071978
0.000240622
0.0003361791
0.0005422264
0.0009356187
0.001624302
0.002673644
0.003577054
0.004239979
0.005160938
0.009036101
0.007357403
0.005473912
0.004472268
0.003802435
0.00318666
0.002366779
0.001744504
0.001312852
0.001015041
0.0008067283
0.00065833
0.0005506379
0.0004709932
0.0004104878
0.0003622245
0.0003202667
0.0002785046
0.0002403747
0.0002156864
0.0002116632
0.0002420093
0.0003342167
0.0005370433
0.0009277568
0.00161455
0.002661781
0.00356905
0.004234851
0.00515701
0.009028037
0.007358007
0.005475324
0.004474848
0.003806701
0.003191196
0.00237125
0.001748727
0.001316539
0.001018003
0.0008089182
0.0006597709
0.0005513077
0.0004707631
0.0004093055
0.0003606693
0.0003204234
0.0002834297
0.0002484938
0.0002244428
0.0002197635
0.0002495747
0.0003427613
0.0005487254
0.0009440914
0.001636167
0.002691945
0.003590704
0.004250827
0.005171479
0.009068954
0.007358993
0.005477704
0.004479299
0.003814166
0.003199288
0.002379298
0.001756308
0.001323149
0.001023388
0.0008130984
0.0006629172
0.0005535867
0.000472242
0.0004100825
0.0003612582
0.0003220937
0.0002882471
0.0002563571
0.0002339695
0.0002303567
0.0002622816
0.000360399
0.0005748358
0.0009810822
0.001685207
0.00276039
0.003635824
0.004282672
0.005199023
0.009141839
0.007360235
0.005480801
0.00448521
0.00382402
0.003210347
0.002390499
0.00176684
0.001332315
0.001030938
0.000819125
0.0006677121
0.0005574818
0.0004755025
0.0004129638
0.0003641886
0.0003257297
0.0002937399
0.0002643215
0.0002441626
0.000243044
0.000279401
0.0003859937
0.0006138611
0.001037164
0.001759591
0.002856806
0.00369548
0.004322904
0.00523248
0.009227409
0.007361452
0.005484131
0.004491956
0.003835456
0.003224483
0.002406523
0.001781682
0.001344744
0.001040944
0.0008270926
0.0006741682
0.0005629692
0.0004804874
0.0004178348
0.0003693016
0.0003313791
0.0003004857
0.0002730569
0.0002555164
0.0002582633
0.0003016611
0.000421286
0.0006707684
0.00112641
0.001886738
0.00297978
0.003763006
0.004364512
0.005265038
0.009308662
0.007362164
0.005486931
0.004498845
0.003848882
0.003244675
0.002439068
0.001808344
0.001364027
0.001054954
0.0008375943
0.0006824544
0.0005700288
0.0004870747
0.0004244953
0.0003763688
0.0003389691
0.0003088462
0.0002832336
0.0002688313
0.000277119
0.0003312207
0.0004717177
0.0007614717
0.001298388
0.002200063
0.003142433
0.003835566
0.004401635
0.005290519
0.009370005
0.007361559
0.005487988
0.004505006
0.003865872
0.003280378
0.002534386
0.001868412
0.0013987
0.001076288
0.0008518345
0.0006928956
0.0005786166
0.0004950619
0.0004326749
0.0003851309
0.0003483817
0.000319046
0.0002954407
0.0002849791
0.0003007749
0.0003693313
0.0005365053
0.0008720106
0.001479156
0.002442581
0.003286762
0.003898369
0.004427603
0.005302807
0.00939455
0.007358329
0.005485331
0.00450832
0.003882955
0.003318781
0.002614503
0.001936884
0.00144452
0.001105038
0.0008701891
0.0007055442
0.0005885266
0.0005041081
0.0004419963
0.0003952629
0.0003594425
0.0003312036
0.0003101447
0.0003046921
0.0003298324
0.0004146747
0.0006067285
0.0009742674
0.001613809
0.002587067
0.003378776
0.003935776
0.004434624
0.005294931
0.009359596
0.007350421
0.005475848
0.004505067
0.003895131
0.003355618
0.002696297
0.002008332
0.001494281
0.001137385
0.0008911134
0.0007197259
0.0005992733
0.0005137187
0.0004519657
0.0004063448
0.0003718799
0.0003452906
0.0003275943
0.0003284445
0.0003647025
0.0004667833
0.00068049
0.001068766
0.001720988
0.002692706
0.00343095
0.003943544
0.004415511
0.005257757
0.009238385
0.007334556
0.005455111
0.004491163
0.003898972
0.003391427
0.002801079
0.002085747
0.001546951
0.001172286
0.0009140166
0.0007350462
0.0006104376
0.0005233899
0.0004620447
0.0004178845
0.0003853068
0.0003610869
0.0003477582
0.0003564226
0.0004057633
0.0005263165
0.0007602507
0.00116447
0.001820936
0.002778945
0.003452469
0.003920612
0.004364543
0.005180586
0.008994515
0.007306148
0.005418645
0.004465316
0.003898071
0.003438007
0.002928391
0.002181849
0.001612283
0.001215398
0.0009417539
0.0007527293
0.0006223358
0.0005329538
0.0004718382
0.0004294108
0.0003992453
0.0003781639
0.0003703173
0.0003886101
0.000453802
0.0005964229
0.0008557688
0.00128486
0.001951298
0.002858566
0.003458355
0.003875892
0.004284733
0.005057692
0.008583544
0.007261564
0.005370067
0.004441279
0.003911017
0.003500056
0.003040697
0.002308026
0.00171078
0.001281168
0.0009823685
0.0007767099
0.0006366632
0.0005429672
0.0004813303
0.0004405984
0.0004131721
0.0003958885
0.0003946914
0.0004249325
0.0005105781
0.0006845024
0.0009893678
0.001486264
0.002225954
0.003001202
0.003501267
0.003854965
0.004213942
0.004911988
0.007984951
0.007212351
0.005356842
0.004497275
0.004035716
0.003691777
0.003288941
0.002610033
0.001920993
0.001405489
0.001051542
0.0008137684
0.0006563729
0.0005547009
0.0004909501
0.0004513341
0.0004265554
0.0004134278
0.0004199861
0.000464964
0.000577481
0.0007963966
0.001173369
0.001783069
0.002662728
0.003307298
0.003714422
0.004000556
0.004299656
0.004899632
0.007421646
0.007257703
0.005605197
0.004927444
0.004597184
0.004353845
0.004023162
0.003397302
0.002360007
0.001625849
0.001160905
0.0008675816
0.0006828432
0.0005687939
0.0005008253
0.0004611306
0.0004382534
0.0004290723
0.0004440695
0.0005062215
0.000652288
0.0009339346
0.001428746
0.002263187
0.003495501
0.004119869
0.004449715
0.004676596
0.004947625
0.005598214
0.008467649
0.007936786
0.007001475
0.006710535
0.00659544
0.006512687
0.006338425
0.005703017
0.003182883
0.001928527
0.001286381
0.0009240933
0.0007092073
0.0005807708
0.000505737
0.0004629752
0.0004397411
0.0004332626
0.000456353
0.0005360455
0.0007168131
0.001066406
0.001716172
0.00300671
0.005882034
0.006428288
0.006611559
0.006745557
0.006997689
0.008087611
0.01950212
0.007946637
0.006929757
0.00657509
0.006415309
0.006281879
0.005959538
0.004305043
0.002577863
0.001668858
0.001167157
0.0008674892
0.0006805102
0.0005627415
0.000489459
0.000444572
0.0004187523
0.0004109171
0.0004320064
0.000505943
0.0006761462
0.001009807
0.001635101
0.002878813
0.005684451
0.006234866
0.006447493
0.00661318
0.006892038
0.007981669
0.02016676
0.007211916
0.005357037
0.004499773
0.004043029
0.003708573
0.003322275
0.002692592
0.001967943
0.001428785
0.001062971
0.0008187212
0.000656924
0.0005515051
0.0004842577
0.0004418379
0.0004161803
0.0004059476
0.0004192151
0.0004752029
0.0006078257
0.0008628037
0.001299312
0.001990776
0.002930307
0.003489894
0.003825722
0.004074162
0.004355168
0.004952225
0.007540152
0.007144522
0.005033924
0.003929051
0.003295514
0.002856428
0.002470565
0.002036787
0.00160258
0.001241771
0.0009691076
0.0007721167
0.000633619
0.0005384513
0.0004741413
0.0004309163
0.0004028854
0.0003887576
0.0003938268
0.0004327634
0.0005306443
0.0007171893
0.001019351
0.001449334
0.001959318
0.002386332
0.002708561
0.00294977
0.003162718
0.003444353
0.004264952
0.007187292
0.005025642
0.003824242
0.003102469
0.002602552
0.002196003
0.001795788
0.001435581
0.001139892
0.0009113138
0.0007408493
0.0006167263
0.0005278649
0.0004646909
0.0004197184
0.0003886868
0.000370295
0.0003675255
0.0003917261
0.0004623264
0.0006021073
0.0008301815
0.001154685
0.0015511
0.001932574
0.002261345
0.002520523
0.002743331
0.003012924
0.00375399
0.007229591
0.005069241
0.003834639
0.003071152
0.00253411
0.002101034
0.001701898
0.00136118
0.00108845
0.0008787441
0.0007212547
0.0006046623
0.0005189324
0.0004556794
0.0004086529
0.0003745795
0.0003519277
0.0003419038
0.0003538944
0.0004040619
0.0005126295
0.0006985095
0.000974948
0.001337464
0.00173132
0.002101864
0.002407387
0.002680577
0.003028603
0.003986132
0.007256587
0.0051043
0.003857602
0.003073055
0.00251336
0.002058207
0.001655394
0.001321344
0.001058496
0.0008578904
0.0007071361
0.0005945681
0.0005103806
0.0004466899
0.0003978339
0.0003609783
0.0003341289
0.0003173811
0.0003193061
0.0003540627
0.0004408146
0.0005998242
0.000848575
0.00119615
0.001619425
0.002045487
0.002402484
0.002724621
0.003140147
0.004292858
0.00727125
0.005124102
0.003871326
0.003074491
0.002501352
0.002031744
0.001624417
0.001293268
0.001036191
0.0008412695
0.0006948274
0.0005848769
0.0005017511
0.0004378522
0.0003876978
0.0003483842
0.0003172328
0.0002942004
0.0002879047
0.0003108996
0.0003814906
0.0005218783
0.0007543329
0.00109588
0.001537125
0.002009237
0.002410056
0.002769542
0.003227693
0.004504118
0.007278085
0.005132717
0.003875315
0.003069387
0.002486414
0.00200331
0.001594233
0.00126751
0.001016181
0.0008261684
0.0006832076
0.0005753845
0.0004933355
0.0004297044
0.0003788784
0.0003372863
0.0003013778
0.0002725062
0.000259782
0.0002738504
0.0003313926
0.0004555495
0.0006730658
0.001007838
0.001457949
0.001959062
0.002396897
0.002785926
0.003270092
0.004609171
0.007280407
0.005134658
0.003873177
0.003059806
0.002469146
0.001972728
0.001564983
0.001244083
0.0009984052
0.00081263
0.0006725279
0.0005665444
0.0004857047
0.0004228489
0.0003719661
0.000327995
0.0002864809
0.0002524276
0.0002351631
0.0002427324
0.0002892735
0.0003971831
0.0005960576
0.000916384
0.001364899
0.001883981
0.002356614
0.002772325
0.003273595
0.004630657
0.007280333
0.005133148
0.003868309
0.003049729
0.00245521
0.00195351
0.001545365
0.001226987
0.0009844184
0.0008013178
0.0006632578
0.0005588207
0.000479275
0.0004175648
0.0003671253
0.0003203892
0.0002724144
0.0002343545
0.0002144585
0.0002175689
0.0002548382
0.0003464493
0.000522337
0.0008179858
0.001252081
0.001780274
0.002291416
0.002734436
0.00324817
0.004591532
0.007279166
0.00513018
0.003862593
0.00304036
0.002444
0.001940297
0.001531725
0.001214395
0.0009734974
0.0007920942
0.0006555267
0.0005523845
0.0004740448
0.0004134691
0.0003636137
0.0003138146
0.0002596452
0.0002193253
0.0001983293
0.0001984273
0.0002281036
0.0003047251
0.0004560877
0.0007184289
0.001121601
0.00164708
0.002208468
0.002680109
0.003203715
0.004514727
0.007277694
0.005126956
0.003857159
0.003032346
0.002434896
0.001930225
0.001521434
0.00120473
0.0009649314
0.0007847338
0.0006492806
0.0005471201
0.0004696401
0.000409725
0.0003600525
0.0003078549
0.000249903
0.0002089151
0.0001874415
0.0001851648
0.0002087271
0.0002733379
0.0004048755
0.0006391495
0.001011992
0.001527589
0.002122545
0.002617518
0.003147962
0.004415793
0.00727637
0.00512419
0.003852728
0.003026435
0.002427915
0.001922588
0.001513702
0.00119748
0.0009584883
0.0007791447
0.0006444263
0.0005428333
0.00046577
0.0004061348
0.0003566279
0.0003039027
0.0002453027
0.0002042556
0.0001820222
0.0001773098
0.0001955932
0.0002505685
0.0003669393
0.0005810826
0.0009333125
0.001438222
0.00204115
0.002553653
0.003088512
0.00430932
0.007275448
0.005122286
0.00384972
0.00302249
0.002423232
0.001917483
0.001508568
0.001192687
0.0009542095
0.0007753467
0.0006409366
0.0005394372
0.0004623354
0.0004027903
0.000353929
0.0003029263
0.0002465676
0.0002054942
0.0001818573
0.0001744019
0.0001879637
0.0002351526
0.0003396866
0.0005382786
0.0008740556
0.00136703
0.001971895
0.00249763
0.003035176
0.004212794
0.007275048
0.005121458
0.003848405
0.003020767
0.002421193
0.001915259
0.001506317
0.001190547
0.0009522177
0.0007734191
0.0006388841
0.0005370037
0.0004593258
0.0003993653
0.0003510407
0.0003036961
0.0002526029
0.0002118446
0.0001863699
0.0001760435
0.0001856733
0.0002273363
0.0003240799
0.0005126479
0.0008376747
0.001322203
0.001926798
0.002461123
0.003000177
0.004148782
0.007275221
0.00512178
0.003848857
0.003021312
0.002421807
0.001915908
0.001506947
0.001191074
0.0009525501
0.0007734484
0.0006384529
0.0005358626
0.0004571544
0.0003959587
0.0003469027
0.0003032225
0.000259721
0.0002211002
0.0001943113
0.0001815612
0.0001885135
0.0002275426
0.000321746
0.0005079002
0.000830811
0.00131384
0.00191823
0.00245472
0.002994763
0.004140678
0.007275951
0.005123222
0.003851028
0.003024063
0.002425001
0.001919345
0.001510365
0.001194186
0.0009551543
0.0007754427
0.0006397628
0.0005363355
0.0004565039
0.0003939434
0.0003440032
0.0003026943
0.0002654325
0.0002302744
0.0002037522
0.0001898912
0.0001958365
0.0002352914
0.0003323351
0.0005239391
0.0008538233
0.001342965
0.001948283
0.002479834
0.003020171
0.004190616
0.007277167
0.005125657
0.003854764
0.003028879
0.002430632
0.001925425
0.001516422
0.001199739
0.0009599195
0.0007793443
0.0006428331
0.0005385811
0.0004578344
0.0003943311
0.0003439564
0.0003039862
0.0002705004
0.0002385869
0.0002133865
0.0001998877
0.0002067917
0.0002495748
0.0003538689
0.0005569517
0.0009003375
0.00140036
0.002005532
0.002527049
0.003066093
0.004276036
0.007278722
0.005128838
0.00385975
0.003035625
0.0024383
0.001933712
0.00152473
0.001207436
0.0009666513
0.0007850467
0.0006476178
0.0005425991
0.000461198
0.0003972115
0.0003467933
0.0003075896
0.0002760756
0.000246588
0.000223185
0.000211242
0.0002208643