/*--------------------------------*- C++ -*----------------------------------*\
| =========                 |                                                 |
| \\      /  F ield         | OpenFOAM: The Open Source CFD Toolbox           |
|  \\    /   O peration     | Version:  2506                                  |
|   \\  /    A nd           | Website:  www.openfoam.com                      |
|    \\/     M anipulation  |                                                 |
\*---------------------------------------------------------------------------*/
FoamFile
{
    version     2.0;
    format      ascii;
    arch        "LSB;label=32;scalar=64";
    class       volScalarField;
    location    "100/airRegion";
    object      rho;
}
// * * * * * * * * * * * * * * * * * * * * * * * * * * * * * * * * * * * * * //

dimensions      [1 -3 0 0 0 0 0];

internalField   nonuniform List<scalar> 
85779
(
1.15735
1.157436
1.157523
1.15761
1.157696
1.157781
1.157859
1.157913
1.157934
1.157978
1.158032
1.158095
1.158168
1.158258
1.158367
1.158499
1.158652
1.158811
1.158957
1.159081
1.159179
1.159256
1.159316
1.159379
1.159462
1.159548
1.159635
1.159723
1.15981
1.159897
1.157348
1.157432
1.157518
1.157603
1.157687
1.157768
1.157831
1.157875
1.15792
1.157971
1.158027
1.158091
1.158166
1.158256
1.158366
1.158498
1.158651
1.158811
1.158958
1.159083
1.159184
1.159263
1.159329
1.159388
1.159468
1.159552
1.159639
1.159725
1.159812
1.159897
1.157347
1.15743
1.157515
1.157599
1.157682
1.157758
1.157808
1.157856
1.157907
1.157962
1.158021
1.158087
1.158163
1.158253
1.158364
1.158497
1.158651
1.158811
1.158959
1.159087
1.15919
1.159272
1.159339
1.159393
1.159471
1.159555
1.15964
1.159726
1.159812
1.159897
1.157347
1.157429
1.157513
1.157596
1.157678
1.157752
1.157794
1.157843
1.157897
1.157953
1.158015
1.158082
1.158159
1.158251
1.158363
1.158496
1.15865
1.158811
1.15896
1.159089
1.159195
1.159279
1.159346
1.159398
1.159474
1.159556
1.159641
1.159726
1.159812
1.159897
1.157346
1.157429
1.157512
1.157595
1.157675
1.157743
1.157784
1.157834
1.157889
1.157947
1.158009
1.158078
1.158156
1.158249
1.158361
1.158496
1.15865
1.158811
1.158959
1.15909
1.159198
1.159285
1.159354
1.159405
1.159476
1.159557
1.159641
1.159726
1.159812
1.159897
1.157346
1.157428
1.157511
1.157594
1.157673
1.157732
1.157777
1.157828
1.157883
1.157942
1.158005
1.158075
1.158154
1.158248
1.158361
1.158495
1.15865
1.15881
1.158958
1.159089
1.159199
1.159288
1.159361
1.159423
1.159478
1.159557
1.159641
1.159726
1.159811
1.159896
1.157346
1.157428
1.157511
1.157593
1.157671
1.157727
1.157772
1.157823
1.157878
1.157938
1.158002
1.158073
1.158153
1.158247
1.15836
1.158496
1.158651
1.15881
1.158956
1.159086
1.159197
1.159288
1.159363
1.159426
1.159479
1.159557
1.159641
1.159726
1.159811
1.159896
1.157346
1.157428
1.157511
1.157593
1.157669
1.157718
1.157766
1.157818
1.157875
1.157935
1.158
1.158072
1.158152
1.158247
1.158361
1.158497
1.158653
1.15881
1.158954
1.159082
1.159193
1.159286
1.159362
1.159427
1.159479
1.159557
1.159641
1.159725
1.159811
1.159896
1.157346
1.157428
1.157511
1.157592
1.157667
1.15771
1.15776
1.157815
1.157872
1.157934
1.157999
1.158071
1.158152
1.158247
1.158362
1.158499
1.158656
1.158811
1.158951
1.159077
1.159187
1.159281
1.15936
1.159426
1.15948
1.159557
1.15964
1.159725
1.159811
1.159896
1.157346
1.157428
1.157511
1.157592
1.157666
1.157707
1.157758
1.157813
1.157871
1.157932
1.157998
1.158071
1.158152
1.158248
1.158363
1.158502
1.15866
1.158812
1.158948
1.159071
1.15918
1.159275
1.159356
1.159425
1.159481
1.159558
1.159641
1.159725
1.159811
1.159896
1.157346
1.157428
1.157511
1.157592
1.157665
1.157706
1.157756
1.157811
1.15787
1.157932
1.157998
1.158071
1.158153
1.158249
1.158365
1.158505
1.158664
1.158813
1.158945
1.159064
1.159172
1.159268
1.159352
1.159426
1.159486
1.159559
1.159641
1.159725
1.159811
1.159896
1.157346
1.157428
1.157511
1.157591
1.157665
1.157705
1.157756
1.157811
1.157869
1.157931
1.157998
1.158071
1.158153
1.158249
1.158366
1.158507
1.158665
1.158811
1.15894
1.159057
1.159164
1.15926
1.159347
1.159425
1.159495
1.15956
1.159641
1.159725
1.159811
1.159896
1.157346
1.157428
1.15751
1.157591
1.157665
1.157705
1.157755
1.15781
1.157869
1.157931
1.157998
1.158071
1.158153
1.158249
1.158366
1.158506
1.158663
1.158807
1.158934
1.15905
1.159156
1.159253
1.159341
1.159421
1.159494
1.159559
1.159641
1.159725
1.159811
1.159896
1.157346
1.157428
1.15751
1.157591
1.157664
1.157705
1.157755
1.15781
1.157868
1.157931
1.157997
1.15807
1.158153
1.158249
1.158364
1.158502
1.158657
1.158801
1.158927
1.159043
1.159149
1.159246
1.159336
1.159418
1.159492
1.159559
1.159641
1.159725
1.159811
1.159896
1.157346
1.157428
1.15751
1.157591
1.157664
1.157705
1.157754
1.157809
1.157868
1.15793
1.157997
1.15807
1.158152
1.158248
1.158361
1.158497
1.158648
1.158792
1.15892
1.159036
1.159143
1.159242
1.159333
1.159416
1.159491
1.159559
1.15964
1.159725
1.159811
1.159896
1.157346
1.157428
1.15751
1.157591
1.157664
1.157705
1.157755
1.157809
1.157868
1.15793
1.157997
1.15807
1.158152
1.158246
1.158358
1.15849
1.158638
1.158783
1.158913
1.159031
1.15914
1.15924
1.159332
1.159415
1.159491
1.159559
1.15964
1.159725
1.159811
1.159896
1.157346
1.157428
1.15751
1.157591
1.157664
1.157705
1.157755
1.15781
1.157868
1.15793
1.157997
1.15807
1.158151
1.158245
1.158356
1.158485
1.15863
1.158775
1.158907
1.159029
1.15914
1.159241
1.159333
1.159417
1.159492
1.159559
1.159641
1.159725
1.159811
1.159896
1.157346
1.157428
1.15751
1.157591
1.157665
1.157705
1.157755
1.15781
1.157869
1.157931
1.157997
1.158069
1.158151
1.158244
1.158354
1.158482
1.158624
1.15877
1.158904
1.159028
1.159142
1.159245
1.159337
1.15942
1.159494
1.159559
1.159641
1.159725
1.159811
1.159896
1.157346
1.157428
1.157511
1.157591
1.157665
1.157706
1.157756
1.157811
1.157869
1.157931
1.157997
1.158069
1.15815
1.158244
1.158354
1.15848
1.158621
1.158767
1.158904
1.159031
1.159147
1.159251
1.159343
1.159424
1.159496
1.15956
1.159641
1.159725
1.159811
1.159896
1.157346
1.157428
1.157511
1.157592
1.157665
1.157706
1.157757
1.157812
1.15787
1.157932
1.157997
1.15807
1.158151
1.158244
1.158354
1.15848
1.158621
1.158768
1.158906
1.159035
1.159153
1.159258
1.159349
1.159427
1.159496
1.15956
1.159641
1.159725
1.159811
1.159896
1.157346
1.157428
1.157511
1.157592
1.157666
1.157709
1.157758
1.157813
1.157871
1.157932
1.157998
1.15807
1.158151
1.158245
1.158354
1.158481
1.158623
1.15877
1.158911
1.159042
1.159161
1.159265
1.159353
1.159427
1.159485
1.159559
1.159641
1.159725
1.159811
1.159896
1.157346
1.157428
1.157511
1.157592
1.157668
1.157724
1.157763
1.157815
1.157873
1.157934
1.157999
1.158071
1.158151
1.158245
1.158356
1.158483
1.158626
1.158775
1.158917
1.15905
1.159169
1.159272
1.159357
1.159426
1.159481
1.159558
1.159641
1.159725
1.159811
1.159896
1.157346
1.157428
1.157511
1.157593
1.15767
1.157729
1.157768
1.157819
1.157875
1.157936
1.158001
1.158072
1.158152
1.158246
1.158357
1.158486
1.15863
1.158781
1.158925
1.159058
1.159178
1.159278
1.15936
1.159427
1.15948
1.159558
1.159641
1.159725
1.159811
1.159896
1.157346
1.157428
1.157511
1.157593
1.157672
1.157735
1.157773
1.157823
1.157879
1.157938
1.158003
1.158073
1.158154
1.158248
1.15836
1.158489
1.158635
1.158787
1.158932
1.159067
1.159185
1.159283
1.159362
1.159427
1.15948
1.159558
1.159641
1.159726
1.159811
1.159896
1.157346
1.157428
1.157512
1.157594
1.157673
1.157735
1.157778
1.157828
1.157883
1.157942
1.158006
1.158076
1.158156
1.15825
1.158362
1.158493
1.15864
1.158793
1.15894
1.159074
1.15919
1.159285
1.159362
1.159426
1.159479
1.159558
1.159641
1.159726
1.159812
1.159896
1.157346
1.157429
1.157512
1.157595
1.157676
1.157747
1.157786
1.157835
1.157889
1.157947
1.15801
1.158079
1.158158
1.158252
1.158365
1.158496
1.158645
1.158799
1.158946
1.159079
1.159193
1.159284
1.159359
1.159422
1.159478
1.159558
1.159641
1.159726
1.159812
1.159897
1.157347
1.157429
1.157513
1.157596
1.157678
1.157752
1.157795
1.157844
1.157897
1.157954
1.158015
1.158083
1.158162
1.158255
1.158367
1.158499
1.158649
1.158804
1.158951
1.159082
1.159192
1.15928
1.159351
1.159406
1.159476
1.159557
1.159641
1.159726
1.159812
1.159897
1.157347
1.15743
1.157515
1.157599
1.157682
1.157759
1.157813
1.157858
1.157908
1.157962
1.158022
1.158088
1.158165
1.158258
1.15837
1.158502
1.158652
1.158808
1.158954
1.159083
1.159189
1.159273
1.159342
1.159397
1.159473
1.159555
1.15964
1.159726
1.159812
1.159897
1.157348
1.157432
1.157518
1.157603
1.157687
1.157768
1.157835
1.157875
1.15792
1.157971
1.158028
1.158093
1.158169
1.15826
1.158372
1.158504
1.158655
1.15881
1.158955
1.159081
1.159184
1.159266
1.159333
1.159389
1.159468
1.159553
1.159639
1.159725
1.159812
1.159898
1.15735
1.157436
1.157523
1.15761
1.157696
1.157781
1.157858
1.157893
1.157932
1.157978
1.158033
1.158096
1.158171
1.158262
1.158374
1.158506
1.158656
1.158812
1.158956
1.15908
1.15918
1.15926
1.159325
1.15938
1.159462
1.159548
1.159635
1.159723
1.15981
1.159897
1.157348
1.157432
1.157518
1.157603
1.157688
1.157769
1.157841
1.157878
1.157922
1.157972
1.158028
1.158092
1.158166
1.158256
1.158365
1.158497
1.158649
1.158808
1.158955
1.15908
1.159181
1.159261
1.159327
1.159387
1.159467
1.159552
1.159638
1.159725
1.159812
1.159897
1.157344
1.157424
1.157505
1.157587
1.157667
1.157742
1.157808
1.15786
1.157911
1.157965
1.158023
1.158089
1.158164
1.158254
1.158364
1.158497
1.158649
1.158808
1.158956
1.159083
1.159186
1.159268
1.159339
1.159406
1.159482
1.159564
1.159647
1.159732
1.159817
1.159901
1.157342
1.157418
1.157497
1.157576
1.157653
1.157725
1.157787
1.157844
1.157899
1.157956
1.158017
1.158084
1.158161
1.158252
1.158363
1.158496
1.158648
1.158808
1.158957
1.159086
1.159192
1.159278
1.159351
1.159419
1.159493
1.159572
1.159653
1.159736
1.15982
1.159902
1.157341
1.157416
1.157492
1.157569
1.157644
1.157714
1.157774
1.157832
1.157889
1.157948
1.158011
1.15808
1.158158
1.15825
1.158362
1.158495
1.158648
1.158808
1.158957
1.159088
1.159197
1.159286
1.15936
1.159428
1.1595
1.159577
1.159656
1.159738
1.15982
1.159901
1.15734
1.157414
1.15749
1.157566
1.157638
1.157706
1.157765
1.157823
1.157881
1.157942
1.158006
1.158076
1.158155
1.158248
1.15836
1.158494
1.158648
1.158808
1.158956
1.159088
1.1592
1.159291
1.159368
1.159435
1.159504
1.159579
1.159657
1.159738
1.159819
1.1599
1.15734
1.157414
1.157489
1.157563
1.157635
1.1577
1.157759
1.157817
1.157876
1.157937
1.158002
1.158073
1.158153
1.158247
1.15836
1.158494
1.158648
1.158807
1.158955
1.159087
1.1592
1.159294
1.159372
1.159441
1.159507
1.15958
1.159657
1.159737
1.159819
1.159899
1.15734
1.157413
1.157488
1.157562
1.157633
1.157697
1.157755
1.157813
1.157872
1.157934
1.158
1.158071
1.158152
1.158247
1.15836
1.158495
1.158649
1.158807
1.158953
1.159083
1.159197
1.159293
1.159373
1.159443
1.159508
1.15958
1.159657
1.159736
1.159818
1.159899
1.15734
1.157413
1.157488
1.157561
1.157631
1.157693
1.157751
1.157809
1.157869
1.157932
1.157998
1.15807
1.158152
1.158247
1.158361
1.158497
1.158652
1.158808
1.15895
1.159079
1.159192
1.159289
1.159371
1.159443
1.159509
1.15958
1.159656
1.159736
1.159817
1.159898
1.15734
1.157413
1.157487
1.157561
1.157629
1.15769
1.157748
1.157807
1.157867
1.15793
1.157997
1.15807
1.158152
1.158247
1.158362
1.1585
1.158656
1.158809
1.158948
1.159073
1.159185
1.159283
1.159367
1.159441
1.159508
1.15958
1.159656
1.159735
1.159817
1.159898
1.15734
1.157413
1.157487
1.15756
1.157628
1.157688
1.157746
1.157805
1.157866
1.157929
1.157996
1.15807
1.158152
1.158248
1.158364
1.158503
1.158661
1.158811
1.158945
1.159067
1.159177
1.159275
1.159361
1.159438
1.159508
1.159579
1.159656
1.159735
1.159817
1.159898
1.15734
1.157413
1.157487
1.15756
1.157628
1.157687
1.157745
1.157804
1.157865
1.157929
1.157996
1.15807
1.158153
1.15825
1.158366
1.158507
1.158665
1.158812
1.158942
1.15906
1.159168
1.159266
1.159354
1.159434
1.159507
1.159579
1.159655
1.159735
1.159817
1.159898
1.15734
1.157413
1.157487
1.157559
1.157627
1.157687
1.157745
1.157804
1.157865
1.157928
1.157996
1.15807
1.158153
1.15825
1.158367
1.15851
1.158667
1.158811
1.158938
1.159053
1.159159
1.159256
1.159346
1.159429
1.159505
1.159578
1.159655
1.159735
1.159817
1.159898
1.15734
1.157413
1.157487
1.157559
1.157627
1.157686
1.157744
1.157803
1.157864
1.157928
1.157996
1.15807
1.158153
1.15825
1.158367
1.158509
1.158666
1.158807
1.158932
1.159045
1.15915
1.159248
1.159339
1.159423
1.159502
1.159577
1.159654
1.159735
1.159817
1.159898
1.15734
1.157413
1.157487
1.157559
1.157627
1.157686
1.157744
1.157803
1.157864
1.157928
1.157996
1.15807
1.158153
1.15825
1.158366
1.158505
1.15866
1.1588
1.158925
1.159038
1.159143
1.15924
1.159332
1.159418
1.159499
1.159575
1.159654
1.159734
1.159817
1.159898
1.15734
1.157413
1.157487
1.157559
1.157627
1.157686
1.157744
1.157803
1.157864
1.157928
1.157996
1.15807
1.158153
1.158248
1.158362
1.158498
1.15865
1.158791
1.158917
1.159031
1.159137
1.159236
1.159328
1.159415
1.159497
1.159574
1.159653
1.159734
1.159817
1.159898
1.15734
1.157413
1.157487
1.157559
1.157627
1.157686
1.157744
1.157803
1.157864
1.157928
1.157995
1.158069
1.158152
1.158247
1.158359
1.158491
1.158638
1.158781
1.15891
1.159026
1.159134
1.159234
1.159327
1.159414
1.159496
1.159574
1.159653
1.159734
1.159817
1.159898
1.15734
1.157413
1.157487
1.157559
1.157627
1.157686
1.157744
1.157803
1.157864
1.157928
1.157995
1.158069
1.158151
1.158246
1.158356
1.158485
1.158629
1.158773
1.158904
1.159023
1.159134
1.159235
1.159329
1.159417
1.159498
1.159575
1.159654
1.159734
1.159817
1.159898
1.15734
1.157413
1.157487
1.157559
1.157627
1.157686
1.157744
1.157803
1.157864
1.157928
1.157995
1.158069
1.158151
1.158245
1.158354
1.158481
1.158622
1.158767
1.1589
1.159023
1.159136
1.159239
1.159334
1.159421
1.159501
1.159577
1.159654
1.159735
1.159817
1.159898
1.15734
1.157413
1.157487
1.15756
1.157628
1.157687
1.157745
1.157804
1.157865
1.157928
1.157995
1.158068
1.15815
1.158244
1.158353
1.158479
1.158619
1.158764
1.1589
1.159025
1.159141
1.159246
1.159341
1.159427
1.159505
1.159579
1.159655
1.159735
1.159817
1.159898
1.15734
1.157413
1.157487
1.15756
1.157628
1.157688
1.157746
1.157805
1.157865
1.157928
1.157996
1.158068
1.15815
1.158244
1.158353
1.158479
1.158619
1.158764
1.158902
1.15903
1.159148
1.159254
1.159349
1.159432
1.159508
1.15958
1.159656
1.159735
1.159817
1.159898
1.15734
1.157413
1.157487
1.15756
1.157629
1.157689
1.157747
1.157806
1.157866
1.157929
1.157996
1.158069
1.15815
1.158244
1.158354
1.15848
1.15862
1.158767
1.158906
1.159037
1.159156
1.159263
1.159356
1.159437
1.159509
1.15958
1.159656
1.159735
1.159817
1.159898
1.15734
1.157413
1.157487
1.157561
1.15763
1.157691
1.157749
1.157807
1.157867
1.15793
1.157997
1.158069
1.158151
1.158245
1.158355
1.158482
1.158623
1.158771
1.158913
1.159045
1.159165
1.159272
1.159362
1.15944
1.159509
1.15958
1.159656
1.159736
1.159817
1.159898
1.15734
1.157413
1.157488
1.157561
1.157631
1.157694
1.157752
1.15781
1.157869
1.157932
1.157998
1.15807
1.158151
1.158246
1.158357
1.158485
1.158627
1.158777
1.15892
1.159054
1.159175
1.15928
1.159368
1.159442
1.159509
1.159581
1.159657
1.159736
1.159818
1.159898
1.15734
1.157413
1.157488
1.157562
1.157633
1.157697
1.157755
1.157813
1.157872
1.157934
1.158
1.158071
1.158153
1.158247
1.158359
1.158488
1.158632
1.158783
1.158928
1.159063
1.159183
1.159286
1.159371
1.159443
1.159509
1.159581
1.159657
1.159737
1.159818
1.159899
1.15734
1.157414
1.157489
1.157564
1.157635
1.157701
1.15776
1.157817
1.157876
1.157938
1.158003
1.158074
1.158154
1.158249
1.158361
1.158491
1.158637
1.15879
1.158936
1.159071
1.15919
1.159289
1.159371
1.159442
1.159509
1.159581
1.159658
1.159737
1.159819
1.159899
1.15734
1.157414
1.15749
1.157566
1.157639
1.157707
1.157766
1.157823
1.157882
1.157942
1.158007
1.158077
1.158157
1.158251
1.158363
1.158494
1.158642
1.158796
1.158942
1.159077
1.159193
1.159289
1.159369
1.159439
1.159506
1.15958
1.159658
1.159738
1.15982
1.1599
1.157341
1.157416
1.157492
1.157569
1.157644
1.157714
1.157774
1.157832
1.157889
1.157949
1.158012
1.158081
1.15816
1.158253
1.158366
1.158497
1.158646
1.158801
1.158947
1.15908
1.159193
1.159285
1.159362
1.159432
1.159502
1.159577
1.159657
1.159738
1.15982
1.159902
1.157342
1.157418
1.157497
1.157576
1.157653
1.157725
1.157788
1.157844
1.1579
1.157957
1.158018
1.158085
1.158163
1.158256
1.158368
1.1585
1.158649
1.158804
1.158951
1.159081
1.15919
1.159278
1.159353
1.159422
1.159495
1.159573
1.159654
1.159736
1.15982
1.159902
1.157344
1.157424
1.157505
1.157587
1.157667
1.157742
1.157808
1.15786
1.157911
1.157965
1.158024
1.15809
1.158167
1.158259
1.15837
1.158502
1.158652
1.158807
1.158952
1.15908
1.159185
1.15927
1.159341
1.159408
1.159483
1.159564
1.159647
1.159732
1.159817
1.159901
1.157348
1.157432
1.157518
1.157603
1.157688
1.157769
1.157841
1.157877
1.157922
1.157972
1.158029
1.158093
1.158169
1.15826
1.158372
1.158504
1.158653
1.158808
1.158953
1.159079
1.159181
1.159263
1.15933
1.159388
1.159468
1.159552
1.159638
1.159725
1.159812
1.159897
1.157347
1.15743
1.157515
1.157599
1.157682
1.157761
1.157824
1.157862
1.15791
1.157964
1.158022
1.158088
1.158163
1.158253
1.158363
1.158494
1.158644
1.158803
1.15895
1.159078
1.159181
1.159264
1.159332
1.15939
1.15947
1.159554
1.15964
1.159726
1.159812
1.159897
1.157342
1.157418
1.157497
1.157576
1.157653
1.157726
1.15779
1.157846
1.157901
1.157957
1.158018
1.158085
1.158161
1.158252
1.158362
1.158494
1.158644
1.158803
1.158951
1.15908
1.159187
1.159273
1.159346
1.159416
1.159491
1.15957
1.159652
1.159736
1.159819
1.159902
1.157339
1.157411
1.157486
1.157561
1.157634
1.157705
1.15777
1.15783
1.157889
1.157949
1.158012
1.15808
1.158158
1.15825
1.158361
1.158493
1.158644
1.158803
1.158952
1.159083
1.159193
1.159283
1.159361
1.159433
1.159507
1.159584
1.159663
1.159744
1.159826
1.159907
1.157338
1.157408
1.15748
1.157552
1.157623
1.157692
1.157757
1.157819
1.15788
1.157942
1.158006
1.158076
1.158155
1.158248
1.15836
1.158492
1.158644
1.158803
1.158952
1.159085
1.159198
1.159292
1.159372
1.159445
1.159518
1.159593
1.15967
1.159749
1.159829
1.159908
1.157337
1.157406
1.157476
1.157547
1.157616
1.157684
1.157748
1.157811
1.157873
1.157936
1.158002
1.158073
1.158153
1.158247
1.158359
1.158492
1.158644
1.158803
1.158951
1.159085
1.1592
1.159297
1.15938
1.159454
1.159525
1.159598
1.159673
1.159751
1.159829
1.159907
1.157337
1.157405
1.157475
1.157544
1.157613
1.157679
1.157743
1.157805
1.157868
1.157931
1.157998
1.15807
1.158152
1.158246
1.158359
1.158492
1.158645
1.158803
1.15895
1.159083
1.159199
1.159299
1.159383
1.159458
1.159529
1.1596
1.159674
1.15975
1.159828
1.159905
1.157336
1.157405
1.157474
1.157543
1.157611
1.157676
1.157739
1.157802
1.157864
1.157928
1.157996
1.158069
1.158151
1.158246
1.158359
1.158494
1.158647
1.158803
1.158948
1.159079
1.159195
1.159296
1.159383
1.15946
1.15953
1.159601
1.159674
1.159749
1.159827
1.159904
1.157336
1.157404
1.157473
1.157542
1.157609
1.157674
1.157737
1.157799
1.157862
1.157927
1.157995
1.158068
1.158151
1.158247
1.158361
1.158496
1.15865
1.158805
1.158946
1.159074
1.159189
1.159291
1.159379
1.159458
1.15953
1.1596
1.159673
1.159748
1.159826
1.159903
1.157336
1.157404
1.157473
1.157541
1.157608
1.157673
1.157735
1.157798
1.157861
1.157926
1.157994
1.158068
1.158151
1.158248
1.158363
1.1585
1.158655
1.158807
1.158944
1.159068
1.15918
1.159282
1.159373
1.159453
1.159527
1.159599
1.159672
1.159747
1.159825
1.159902
1.157336
1.157404
1.157473
1.157541
1.157608
1.157672
1.157734
1.157797
1.15786
1.157925
1.157994
1.158069
1.158152
1.158249
1.158365
1.158505
1.158662
1.15881
1.158941
1.159061
1.159171
1.159272
1.159364
1.159447
1.159523
1.159597
1.159671
1.159747
1.159825
1.159902
1.157336
1.157404
1.157473
1.157541
1.157607
1.157671
1.157734
1.157796
1.157859
1.157925
1.157994
1.158069
1.158153
1.15825
1.158368
1.158511
1.158668
1.158812
1.158939
1.159054
1.159161
1.159261
1.159353
1.159439
1.159518
1.159594
1.159669
1.159746
1.159824
1.159902
1.157336
1.157404
1.157473
1.157541
1.157607
1.157671
1.157733
1.157796
1.157859
1.157925
1.157994
1.158069
1.158154
1.158251
1.15837
1.158514
1.158672
1.158811
1.158934
1.159047
1.159151
1.15925
1.159342
1.159429
1.159512
1.15959
1.159667
1.159744
1.159824
1.159902
1.157336
1.157404
1.157472
1.15754
1.157607
1.157671
1.157733
1.157795
1.157859
1.157925
1.157994
1.15807
1.158154
1.158252
1.15837
1.158514
1.15867
1.158808
1.158929
1.159039
1.159143
1.15924
1.159332
1.15942
1.159505
1.159586
1.159664
1.159743
1.159823
1.159902
1.157336
1.157404
1.157472
1.15754
1.157607
1.15767
1.157733
1.157795
1.157859
1.157924
1.157994
1.158069
1.158154
1.158251
1.158368
1.15851
1.158664
1.158801
1.158922
1.159032
1.159135
1.159232
1.159324
1.159413
1.159498
1.159581
1.159662
1.159742
1.159822
1.159902
1.157336
1.157404
1.157472
1.15754
1.157607
1.15767
1.157733
1.157795
1.157859
1.157924
1.157994
1.158069
1.158153
1.158249
1.158364
1.158501
1.158652
1.158791
1.158914
1.159026
1.159129
1.159227
1.159319
1.159408
1.159495
1.159579
1.15966
1.159741
1.159822
1.159902
1.157336
1.157404
1.157472
1.15754
1.157607
1.15767
1.157733
1.157795
1.157859
1.157924
1.157994
1.158069
1.158152
1.158248
1.15836
1.158492
1.158639
1.15878
1.158906
1.15902
1.159126
1.159225
1.159318
1.159408
1.159494
1.159578
1.15966
1.159741
1.159822
1.159902
1.157336
1.157404
1.157472
1.15754
1.157607
1.15767
1.157733
1.157795
1.157859
1.157924
1.157993
1.158068
1.158151
1.158246
1.158357
1.158485
1.158628
1.15877
1.158899
1.159017
1.159125
1.159226
1.159321
1.159411
1.159497
1.159581
1.159662
1.159742
1.159822
1.159902
1.157336
1.157404
1.157473
1.15754
1.157607
1.157671
1.157733
1.157795
1.157859
1.157924
1.157993
1.158068
1.158151
1.158245
1.158354
1.158481
1.15862
1.158763
1.158895
1.159016
1.159128
1.159231
1.159327
1.159417
1.159503
1.159585
1.159664
1.159743
1.159823
1.159902
1.157336
1.157404
1.157473
1.157541
1.157607
1.157671
1.157733
1.157796
1.157859
1.157924
1.157993
1.158067
1.15815
1.158244
1.158353
1.158478
1.158616
1.15876
1.158894
1.159018
1.159133
1.159238
1.159336
1.159426
1.15951
1.159589
1.159667
1.159744
1.159824
1.159902
1.157336
1.157404
1.157473
1.157541
1.157607
1.157671
1.157734
1.157796
1.157859
1.157924
1.157993
1.158067
1.15815
1.158244
1.158353
1.158478
1.158615
1.158759
1.158896
1.159023
1.15914
1.159247
1.159346
1.159435
1.159517
1.159594
1.159669
1.159746
1.159824
1.159902
1.157336
1.157404
1.157473
1.157541
1.157608
1.157672
1.157735
1.157797
1.15786
1.157925
1.157993
1.158067
1.15815
1.158244
1.158353
1.158478
1.158617
1.158762
1.1589
1.159029
1.159149
1.159258
1.159356
1.159443
1.159523
1.159597
1.159671
1.159747
1.159825
1.159902
1.157336
1.157404
1.157473
1.157542
1.157608
1.157673
1.157736
1.157798
1.157861
1.157926
1.157994
1.158067
1.15815
1.158244
1.158354
1.15848
1.158619
1.158766
1.158906
1.159038
1.159159
1.159269
1.159366
1.159451
1.159527
1.159599
1.159672
1.159748
1.159825
1.159903
1.157336
1.157404
1.157473
1.157542
1.157609
1.157674
1.157737
1.157799
1.157862
1.157927
1.157995
1.158068
1.15815
1.158245
1.158356
1.158483
1.158623
1.158772
1.158914
1.159047
1.15917
1.159279
1.159374
1.159456
1.15953
1.159601
1.159673
1.159749
1.159826
1.159903
1.157336
1.157405
1.157474
1.157543
1.157611
1.157676
1.15774
1.157802
1.157864
1.157929
1.157996
1.158069
1.158151
1.158246
1.158357
1.158485
1.158628
1.158778
1.158922
1.159057
1.15918
1.159287
1.159379
1.159459
1.159531
1.159601
1.159674
1.15975
1.159827
1.159904
1.157337
1.157405
1.157475
1.157544
1.157613
1.157679
1.157743
1.157805
1.157868
1.157932
1.157998
1.158071
1.158153
1.158248
1.158359
1.158489
1.158633
1.158784
1.15893
1.159065
1.159187
1.159292
1.159381
1.159458
1.15953
1.159601
1.159675
1.159751
1.159828
1.159905
1.157337
1.157406
1.157476
1.157547
1.157617
1.157684
1.157748
1.157811
1.157873
1.157936
1.158002
1.158074
1.158155
1.158249
1.158361
1.158492
1.158637
1.15879
1.158937
1.159072
1.159192
1.159293
1.159379
1.159455
1.159526
1.159599
1.159674
1.159751
1.159829
1.159907
1.157338
1.157408
1.15748
1.157552
1.157623
1.157692
1.157757
1.157819
1.15788
1.157942
1.158007
1.158077
1.158157
1.158252
1.158364
1.158494
1.158641
1.158795
1.158942
1.159076
1.159193
1.15929
1.159372
1.159447
1.159519
1.159594
1.15967
1.159749
1.159829
1.159908
1.157339
1.157411
1.157486
1.157561
1.157634
1.157705
1.15777
1.157831
1.15789
1.15795
1.158013
1.158082
1.15816
1.158254
1.158366
1.158497
1.158645
1.158799
1.158946
1.159078
1.15919
1.159283
1.159362
1.159435
1.159508
1.159584
1.159663
1.159744
1.159826
1.159907
1.157342
1.157418
1.157497
1.157576
1.157653
1.157726
1.15779
1.157846
1.157901
1.157958
1.158019
1.158086
1.158164
1.158256
1.158368
1.158499
1.158647
1.158802
1.158947
1.159077
1.159186
1.159274
1.159348
1.159417
1.159492
1.159571
1.159653
1.159736
1.159819
1.159902
1.157347
1.15743
1.157515
1.157599
1.157682
1.157761
1.157824
1.157862
1.15791
1.157964
1.158023
1.158089
1.158166
1.158258
1.158369
1.1585
1.158649
1.158803
1.158948
1.159076
1.159181
1.159265
1.159334
1.159391
1.15947
1.159554
1.15964
1.159726
1.159812
1.159897
1.157347
1.157429
1.157513
1.157597
1.157679
1.157754
1.157799
1.157847
1.1579
1.157956
1.158017
1.158083
1.15816
1.158251
1.15836
1.15849
1.158639
1.158797
1.158945
1.159074
1.159181
1.159266
1.159335
1.159391
1.159471
1.159555
1.15964
1.159726
1.159812
1.159897
1.157341
1.157416
1.157493
1.15757
1.157645
1.157715
1.157777
1.157834
1.157891
1.15795
1.158013
1.158081
1.158158
1.158249
1.15836
1.15849
1.158639
1.158797
1.158946
1.159077
1.159186
1.159275
1.159351
1.15942
1.159495
1.159573
1.159654
1.159736
1.159819
1.159901
1.157338
1.157408
1.15748
1.157552
1.157624
1.157693
1.157758
1.15782
1.157881
1.157943
1.158007
1.158077
1.158155
1.158248
1.158359
1.15849
1.158639
1.158797
1.158946
1.159079
1.159192
1.159286
1.159366
1.15944
1.159514
1.15959
1.159668
1.159747
1.159828
1.159908
1.157336
1.157404
1.157472
1.157542
1.157611
1.157679
1.157745
1.157809
1.157872
1.157935
1.158002
1.158073
1.158153
1.158246
1.158358
1.158489
1.158639
1.158797
1.158946
1.15908
1.159197
1.159295
1.159379
1.159455
1.159529
1.159603
1.159679
1.159756
1.159835
1.159913
1.157335
1.157401
1.157469
1.157537
1.157604
1.157671
1.157736
1.157801
1.157865
1.15793
1.157997
1.15807
1.158151
1.158246
1.158358
1.15849
1.15864
1.158797
1.158945
1.15908
1.159198
1.1593
1.159387
1.159465
1.159539
1.159612
1.159686
1.159762
1.159838
1.159915
1.157335
1.157401
1.157467
1.157534
1.1576
1.157666
1.157731
1.157796
1.15786
1.157926
1.157994
1.158068
1.15815
1.158245
1.158358
1.15849
1.158641
1.158798
1.158944
1.159077
1.159196
1.1593
1.15939
1.15947
1.159545
1.159617
1.159689
1.159763
1.159839
1.159914
1.157335
1.1574
1.157466
1.157532
1.157598
1.157664
1.157729
1.157793
1.157858
1.157924
1.157993
1.158067
1.15815
1.158245
1.158359
1.158492
1.158644
1.158799
1.158942
1.159072
1.159191
1.159296
1.159389
1.159471
1.159546
1.159618
1.15969
1.159763
1.159837
1.159911
1.157335
1.1574
1.157466
1.157532
1.157597
1.157663
1.157727
1.157791
1.157856
1.157922
1.157992
1.158067
1.15815
1.158246
1.15836
1.158496
1.158648
1.158801
1.15894
1.159067
1.159183
1.159288
1.159383
1.159468
1.159545
1.159617
1.159689
1.159761
1.159836
1.15991
1.157335
1.1574
1.157466
1.157531
1.157597
1.157662
1.157726
1.15779
1.157855
1.157922
1.157992
1.158067
1.158151
1.158248
1.158363
1.158501
1.158655
1.158805
1.158939
1.159061
1.159174
1.159278
1.159373
1.15946
1.159539
1.159614
1.159686
1.15976
1.159834
1.159909
1.157335
1.1574
1.157465
1.157531
1.157597
1.157661
1.157726
1.15779
1.157855
1.157922
1.157992
1.158068
1.158152
1.158249
1.158366
1.158508
1.158664
1.158809
1.158937
1.159055
1.159164
1.159265
1.159361
1.159449
1.159531
1.159609
1.159683
1.159757
1.159833
1.159908
1.157335
1.1574
1.157465
1.157531
1.157596
1.157661
1.157725
1.157789
1.157855
1.157922
1.157992
1.158068
1.158153
1.158251
1.158369
1.158515
1.158673
1.158812
1.158935
1.159048
1.159154
1.159253
1.159347
1.159436
1.159521
1.159601
1.159678
1.159754
1.159831
1.159907
1.157335
1.1574
1.157465
1.157531
1.157596
1.157661
1.157725
1.157789
1.157854
1.157922
1.157992
1.158069
1.158154
1.158253
1.158372
1.158521
1.158678
1.158812
1.158931
1.159041
1.159144
1.159241
1.159334
1.159423
1.159509
1.159592
1.159672
1.159751
1.159829
1.159906
1.157335
1.1574
1.157465
1.157531
1.157596
1.157661
1.157725
1.157789
1.157854
1.157922
1.157993
1.158069
1.158155
1.158253
1.158373
1.158522
1.158677
1.158809
1.158926
1.159034
1.159135
1.159231
1.159322
1.159411
1.159497
1.159582
1.159666
1.159747
1.159826
1.159905
1.157335
1.1574
1.157465
1.157531
1.157596
1.157661
1.157725
1.157789
1.157854
1.157922
1.157993
1.158069
1.158155
1.158252
1.158371
1.158516
1.15867
1.158802
1.158919
1.159027
1.159127
1.159222
1.159313
1.159401
1.159488
1.159574
1.159659
1.159742
1.159824
1.159903
1.157335
1.1574
1.157465
1.157531
1.157596
1.157661
1.157725
1.157789
1.157854
1.157921
1.157992
1.158069
1.158154
1.15825
1.158366
1.158506
1.158656
1.158791
1.15891
1.15902
1.159122
1.159217
1.159308
1.159396
1.159482
1.159568
1.159654
1.159739
1.159821
1.159902
1.157335
1.1574
1.157465
1.157531
1.157596
1.157661
1.157725
1.157789
1.157854
1.157921
1.157992
1.158068
1.158153
1.158248
1.158361
1.158494
1.15864
1.158778
1.158902
1.159014
1.159118
1.159215
1.159307
1.159395
1.159481
1.159568
1.159654
1.159739
1.159821
1.159902
1.157335
1.1574
1.157465
1.157531
1.157596
1.157661
1.157725
1.157789
1.157854
1.157921
1.157992
1.158068
1.158152
1.158247
1.158357
1.158485
1.158626
1.158767
1.158894
1.15901
1.159117
1.159217
1.15931
1.159399
1.159486
1.159573
1.159658
1.159742
1.159823
1.159903
1.157335
1.1574
1.157465
1.157531
1.157596
1.157661
1.157725
1.157789
1.157854
1.157921
1.157991
1.158067
1.158151
1.158245
1.158354
1.15848
1.158618
1.158759
1.158889
1.159009
1.159119
1.159221
1.159317
1.159408
1.159495
1.159581
1.159665
1.159746
1.159826
1.159905
1.157335
1.1574
1.157465
1.157531
1.157596
1.157661
1.157725
1.157789
1.157854
1.157921
1.157991
1.158067
1.15815
1.158245
1.158353
1.158477
1.158613
1.158755
1.158888
1.159011
1.159124
1.159229
1.159326
1.159418
1.159506
1.15959
1.159672
1.15975
1.159829
1.159906
1.157335
1.1574
1.157465
1.157531
1.157596
1.157661