/*--------------------------------*- C++ -*----------------------------------*\
| =========                 |                                                 |
| \\      /  F ield         | OpenFOAM: The Open Source CFD Toolbox           |
|  \\    /   O peration     | Version:  2506                                  |
|   \\  /    A nd           | Website:  www.openfoam.com                      |
|    \\/     M anipulation  |                                                 |
\*---------------------------------------------------------------------------*/
FoamFile
{
    version     2.0;
    format      ascii;
    arch        "LSB;label=32;scalar=64";
    class       volVectorField;
    location    "100/airRegion";
    object      U;
}
// * * * * * * * * * * * * * * * * * * * * * * * * * * * * * * * * * * * * * //

dimensions      [0 1 -1 0 0 0 0];

internalField   nonuniform List<vector> 
85779
(
(-0.001453613 -0.001493381 -0.02141596)
(-0.002130192 -0.002258572 -0.02109325)
(-0.002335236 -0.002599387 -0.02065621)
(-0.00256929 -0.003059637 -0.02048646)
(-0.003108343 -0.004021518 -0.02116137)
(-0.00395538 -0.005564058 -0.02332285)
(-0.003662643 -0.003757203 -0.02759371)
(0.003848669 0.003900256 -0.04952156)
(0.01770571 0.01578205 -0.08354712)
(0.03404966 0.02941103 -0.1043964)
(0.05591616 0.04845186 -0.1160159)
(0.08116667 0.07083721 -0.1181188)
(0.108368 0.09515874 -0.1103737)
(0.1349155 0.1188956 -0.09307138)
(0.1570207 0.138467 -0.06751153)
(0.1707525 0.1502068 -0.03633168)
(0.1725918 0.1508434 -0.002204026)
(0.1599527 0.1382738 0.03059406)
(0.1348841 0.1148419 0.05671702)
(0.1009249 0.08391735 0.07264494)
(0.06416733 0.05117985 0.07501737)
(0.03124139 0.02324592 0.06499569)
(0.008036268 0.002435227 0.04551862)
(-0.00219085 -0.006697973 0.02145015)
(-0.005378434 -0.008106058 0.01903325)
(-0.007202183 -0.009155417 0.01655784)
(-0.009198328 -0.01062924 0.01548242)
(-0.01156644 -0.01261287 0.01428838)
(-0.0134733 -0.01426123 0.01252294)
(-0.004749472 -0.005442861 0.002988675)
(-0.004583052 -0.001483939 -0.03858628)
(-0.00678503 -0.00241983 -0.03863857)
(-0.007127832 -0.002733967 -0.0386448)
(-0.006800703 -0.002857385 -0.03922862)
(-0.005798834 -0.003022235 -0.04137419)
(-0.001923261 -0.00272647 -0.04460558)
(0.002918948 0.005072581 -0.0605745)
(0.008049582 0.01833879 -0.0815157)
(0.02061834 0.0282488 -0.09985365)
(0.03958763 0.03881638 -0.1140132)
(0.06271153 0.05241494 -0.1218927)
(0.08897201 0.06876165 -0.1214555)
(0.1169027 0.08686845 -0.1120404)
(0.143799 0.1048823 -0.09371114)
(0.1659326 0.1200042 -0.06763675)
(0.1795395 0.1290447 -0.03630968)
(0.1812851 0.1290681 -0.002232041)
(0.1687758 0.1185511 0.0306614)
(0.1440421 0.1000347 0.05745517)
(0.1100927 0.07653984 0.0749279)
(0.07247281 0.05198571 0.07981015)
(0.03829206 0.02992684 0.07329172)
(0.01509708 0.01148991 0.06072669)
(0.0006848878 -0.000745524 0.03759037)
(-0.0116853 -0.005457728 0.03356765)
(-0.01931247 -0.007846837 0.02933422)
(-0.02642821 -0.009607178 0.02648143)
(-0.03533767 -0.01092501 0.0230893)
(-0.04942205 -0.01035859 0.01969897)
(-0.06707338 0.001842377 -0.0024118)
(-0.007299586 -0.001191391 -0.04639725)
(-0.01109741 -0.002087846 -0.04672202)
(-0.0116298 -0.002430254 -0.04730362)
(-0.01059562 -0.002519533 -0.04884853)
(-0.007679933 -0.002456447 -0.05254599)
(0.0009760974 -0.0010114 -0.05693261)
(0.006065573 0.008515314 -0.08356263)
(0.01187469 0.02099613 -0.1003019)
(0.02635043 0.03083496 -0.1146875)
(0.04661654 0.04050125 -0.124869)
(0.07109316 0.05189011 -0.1288908)
(0.09863293 0.06520438 -0.1255235)
(0.1274908 0.07985834 -0.1140727)
(0.1548801 0.0944683 -0.09450594)
(0.1771461 0.1067614 -0.06783634)
(0.1906686 0.1139428 -0.03630963)
(0.1922995 0.1133958 -0.002166957)
(0.1799372 0.1040545 0.03093152)
(0.1556622 0.08846007 0.05845551)
(0.1218706 0.06916473 0.07760243)
(0.08333263 0.0490371 0.08501893)
(0.04725542 0.03041821 0.08098011)
(0.02168625 0.0138945 0.07003976)
(0.001827837 0.0007561587 0.04491061)
(-0.01775054 -0.00445016 0.0394878)
(-0.0312167 -0.006907984 0.03377081)
(-0.04398426 -0.008620809 0.02906796)
(-0.05938727 -0.009763549 0.02342215)
(-0.08193742 -0.00936926 0.01867702)
(-0.104411 -0.001986894 -0.01009798)
(-0.009355134 -0.0008490489 -0.05020722)
(-0.01455737 -0.001590325 -0.05057363)
(-0.01530772 -0.00194542 -0.05153741)
(-0.01356352 -0.002126055 -0.05386979)
(-0.008875771 -0.002169605 -0.05857617)
(0.003071147 0.001029227 -0.06455546)
(0.009332432 0.01086966 -0.09615531)
(0.01622622 0.02110546 -0.1123943)
(0.03243093 0.03010041 -0.1255963)
(0.05411586 0.039079 -0.1334078)
(0.07991581 0.04908523 -0.1347997)
(0.1085464 0.06037129 -0.1291338)
(0.1381438 0.07259682 -0.1159302)
(0.1659244 0.08473448 -0.09522818)
(0.1883304 0.094921 -0.06798224)
(0.2018224 0.1006636 -0.03625695)
(0.2033436 0.09955893 -0.002056777)
(0.1911063 0.09090884 0.03120609)
(0.167391 0.07732682 0.05935912)
(0.1340539 0.06104216 0.07994056)
(0.09483236 0.04426105 0.0893721)
(0.05650234 0.02873218 0.08693904)
(0.02753642 0.01477592 0.07619471)
(0.002760492 0.001694756 0.04912279)
(-0.02263953 -0.004051537 0.04153516)
(-0.04154723 -0.00595145 0.0344838)
(-0.05948057 -0.007295925 0.0282281)
(-0.07969095 -0.008126358 0.02119182)
(-0.106391 -0.007711903 0.01655052)
(-0.126275 -0.00232045 -0.01467371)
(-0.01076397 -0.0005616346 -0.0521628)
(-0.01704619 -0.001117105 -0.05250071)
(-0.01799447 -0.001447885 -0.0537841)
(-0.01556293 -0.001731297 -0.05704158)
(-0.008846254 -0.00191574 -0.06224087)
(0.004000093 0.002842594 -0.07491107)
(0.01184523 0.01247811 -0.1043164)
(0.02109875 0.02061491 -0.1206146)
(0.038911 0.02832221 -0.1329043)
(0.06187327 0.03631799 -0.1392809)
(0.08869213 0.04506936 -0.1389984)
(0.1180574 0.05473919 -0.1317466)
(0.1480789 0.06509466 -0.1172634)
(0.1760475 0.07534387 -0.09570492)
(0.1985245 0.08391332 -0.0680111)
(0.2119864 0.08850675 -0.03611743)
(0.2133632 0.08684486 -0.001841254)
(0.2012229 0.07857878 0.03153981)
(0.1782121 0.06645966 0.060141)
(0.1457619 0.0525045 0.08182829)
(0.1064269 0.03852223 0.0929211)
(0.06608514 0.02607784 0.09203845)
(0.03309904 0.01529624 0.08146335)
(0.004046564 0.002807047 0.0549837)
(-0.02517342 -0.004019861 0.04209885)
(-0.04916319 -0.004964791 0.03414467)
(-0.07144675 -0.005775492 0.02651258)
(-0.09496987 -0.006284416 0.01870596)
(-0.1237428 -0.00584534 0.01463057)
(-0.1410022 -0.001977817 -0.01755097)
(-0.01165569 -0.0003513691 -0.05320736)
(-0.01866709 -0.0007309497 -0.05351669)
(-0.01972792 -0.0009778376 -0.05507574)
(-0.01665447 -0.001165394 -0.05909567)
(-0.007105809 -0.0009794033 -0.0645337)
(0.004704614 0.004301597 -0.08770327)
(0.01308616 0.01254053 -0.110518)
(0.02586871 0.01938373 -0.1261265)
(0.04527703 0.02599834 -0.1376716)
(0.06936146 0.03294767 -0.1429946)
(0.09700159 0.04051061 -0.14159)
(0.126851 0.04879908 -0.1332698)
(0.1570654 0.05763756 -0.1179251)
(0.1850767 0.06639592 -0.0958003)
(0.2075868 0.073705 -0.06781221)
(0.2210178 0.07737553 -0.03578769)
(0.2221707 0.07517334 -0.001399976)
(0.2100449 0.06711271 0.03203147)
(0.1878277 0.0561171 0.06085078)
(0.1566746 0.04400691 0.08327079)
(0.1179754 0.03221993 0.0957841)
(0.0761226 0.02200569 0.09664133)
(0.03683951 0.01351984 0.08767772)
(0.005656998 0.00397349 0.07146179)
(-0.02301461 -0.002810158 0.04255612)
(-0.05352241 -0.003592491 0.03403537)
(-0.07944339 -0.004155807 0.02504426)
(-0.1053441 -0.004470627 0.01674554)
(-0.1353316 -0.004082023 0.01320452)
(-0.1506533 -0.001484895 -0.01934562)
(-0.01217594 -0.0002108693 -0.05378263)
(-0.0196117 -0.0004556894 -0.05407814)
(-0.02065691 -0.0006329147 -0.05579962)
(-0.017012 -0.0007551444 -0.06023965)
(-0.006247668 -0.000401807 -0.0657139)
(0.006635201 0.004490062 -0.09082863)
(0.01627596 0.01216235 -0.1135181)
(0.03058189 0.01801403 -0.1294989)
(0.05122071 0.02351573 -0.1405663)
(0.07630008 0.02936464 -0.1451312)
(0.104603 0.03579712 -0.1429196)
(0.1347704 0.0428619 -0.133867)
(0.165042 0.050411 -0.1179625)
(0.1930326 0.0579357 -0.09548974)
(0.215596 0.06422363 -0.06731161)
(0.2290112 0.06713738 -0.03514564)
(0.2298123 0.06443905 -0.0005538595)
(0.2175528 0.05654904 0.0328641)
(0.1961234 0.04655555 0.06165579)
(0.1665558 0.03606843 0.08433615)
(0.1292943 0.02616443 0.09749106)
(0.08759612 0.0175786 0.09888668)
(0.04650836 0.01036213 0.08953279)
(0.01218277 0.003602758 0.073359)
(-0.02051929 -0.001081581 0.04228652)
(-0.05485671 -0.00216564 0.03350004)
(-0.08367076 -0.002673024 0.02389005)
(-0.1114821 -0.00287574 0.01540694)
(-0.1424027 -0.002593619 0.01228356)
(-0.1565401 -0.0009788462 -0.02037206)
(-0.01245518 -0.0001222191 -0.05412112)
(-0.0201047 -0.0002747404 -0.05444771)
(-0.02105386 -0.0004136202 -0.05638621)
(-0.01673218 -0.0005646413 -0.06135536)
(-0.003994341 -0.0003004842 -0.06715749)
(0.007625062 0.004988098 -0.09751745)
(0.01769443 0.01186915 -0.117237)
(0.03445277 0.01655832 -0.13254)
(0.05653346 0.02091599 -0.1426743)
(0.08254302 0.02570926 -0.14635)
(0.1113831 0.03110332 -0.1434192)
(0.141753 0.03707498 -0.1338115)
(0.1720106 0.04348917 -0.1175267)
(0.1999807 0.0499358 -0.09483035)
(0.2226674 0.05534288 -0.06648831)
(0.2360952 0.0576148 -0.03409132)
(0.2363756 0.05451083 0.0008791677)
(0.2238031 0.04690289 0.03425461)
(0.2030881 0.03796323 0.06286242)
(0.1751949 0.02907299 0.08552788)
(0.1397909 0.02105842 0.09903063)
(0.09902983 0.01434638 0.1007561)
(0.05728415 0.008794438 0.0911646)
(0.02061731 0.003844509 0.07436499)
(-0.01585345 -0.0001164695 0.04267191)
(-0.0535512 -0.001278272 0.03341332)
(-0.08481655 -0.001560972 0.02335653)
(-0.1142791 -0.001621242 0.01470143)
(-0.1460489 -0.001425646 0.01180468)
(-0.1597009 -0.0005531182 -0.02088716)
(-0.01258338 -6.32471e-05 -0.05432978)
(-0.0203043 -0.0001375862 -0.05471366)
(-0.02110501 -0.0001926168 -0.05687523)
(-0.01609884 -0.0002033023 -0.06239984)
(-0.001606917 0.0002838016 -0.06857887)
(0.008586855 0.004806797 -0.1028596)
(0.01890684 0.01020857 -0.1204054)
(0.0377556 0.01417321 -0.1349785)
(0.06120064 0.01787386 -0.1440839)
(0.08804135 0.02192223 -0.1469261)
(0.117295 0.02646329 -0.1433736)
(0.14778 0.03147619 -0.1333368)
(0.1779945 0.03686084 -0.1167803)
(0.2059838 0.0423027 -0.09391496)
(0.2288903 0.04687867 -0.06537425)
(0.2423586 0.04858343 -0.03259643)
(0.2419345 0.0452454 0.002966481)
(0.228904 0.03817206 0.03626825)
(0.2088305 0.0304286 0.06459977)
(0.1825716 0.02312397 0.08712129)
(0.1491464 0.01691131 0.1009478)
(0.10969 0.01206357 0.1032533)
(0.06791129 0.008254989 0.09393429)
(0.02983606 0.004592225 0.07683176)
(-0.009503409 0.0005030542 0.04437324)
(-0.05029384 -0.0009444149 0.03403655)
(-0.08364849 -0.0008775833 0.02354601)
(-0.1146085 -0.000736683 0.01458447)
(-0.1472057 -0.0005756878 0.01168827)
(-0.1609128 -0.0002336856 -0.02104607)
(-0.01261443 -2.549302e-05 -0.05444759)
(-0.02029723 -4.007372e-05 -0.05486295)
(-0.02090649 -5.301949e-06 -0.05712534)
(-0.01541874 0.0001582538 -0.0628179)
(-7.758526e-05 0.0008970468 -0.06911158)
(0.01054498 0.004230983 -0.1039869)
(0.02154679 0.00807453 -0.1213608)
(0.04130649 0.01143949 -0.1357522)
(0.06546817 0.01469115 -0.1444889)
(0.09278377 0.01815926 -0.1468871)
(0.1222877 0.02194802 -0.1429532)
(0.152829 0.02607096 -0.1326282)
(0.1830078 0.03046626 -0.1158765)
(0.2110703 0.03489885 -0.09285986)
(0.2342765 0.03860813 -0.06406946)
(0.2477932 0.03979779 -0.03076867)
(0.2465304 0.03652523 0.005535712)
(0.2330121 0.03036498 0.03869109)
(0.2135684 0.02398739 0.06669487)
(0.1888646 0.01820728 0.08905014)
(0.1573665 0.01356957 0.1033209)
(0.1192871 0.0103721 0.1066465)
(0.07768751 0.008298096 0.09828473)
(0.03870803 0.00606133 0.08134971)
(-0.002611105 0.0009785559 0.0480978)
(-0.04560381 -0.001423509 0.03561067)
(-0.08083224 -0.0006436689 0.02454774)
(-0.1132421 -0.0002004539 0.01501264)
(-0.1466448 -1.270269e-05 0.0118751)
(-0.1607768 -2.0392e-05 -0.02095018)
(-0.01259497 -6.731627e-06 -0.05451689)
(-0.02018539 6.321355e-06 -0.05495525)
(-0.0205955 7.324693e-05 -0.05727148)
(-0.01474967 0.0002830384 -0.06302322)
(0.001166334 0.000999129 -0.06934839)
(0.0124415 0.003564172 -0.1041565)
(0.02408431 0.006371263 -0.121489)
(0.04440592 0.009072975 -0.1358843)
(0.06899598 0.01176235 -0.1444683)
(0.09661778 0.01457649 -0.1466178)
(0.1262944 0.01759072 -0.1424282)
(0.1568803 0.0208214 -0.1318898)
(0.1870479 0.02421428 -0.1149795)
(0.2152092 0.02757973 -0.09181846)
(0.2387155 0.03033337 -0.06276942)
(0.2522544 0.03107262 -0.02891721)
(0.2501854 0.02830689 0.0080891)
(0.2363293 0.02349741 0.0409994)
(0.2175785 0.0186218 0.06866543)
(0.1943824 0.01422662 0.09091024)
(0.16476 0.01075419 0.1058161)
(0.1280074 0.008564858 0.1106975)
(0.08631309 0.007637272 0.1044355)
(0.04534746 0.006720069 0.08877538)
(0.003490304 0.001630041 0.05933693)
(-0.03936804 -0.001825201 0.03830799)
(-0.07697931 -0.0004997396 0.02665151)
(-0.1108612 0.0001525755 0.01595403)
(-0.1450043 0.0003423079 0.01230813)
(-0.159788 0.0001116354 -0.02067914)
(-0.01255671 1.786523e-07 -0.05456271)
(-0.02004065 1.95792e-05 -0.05502386)
(-0.02026566 8.440402e-05 -0.05738537)
(-0.01412821 0.0002725296 -0.06318362)
(0.002235097 0.0008671414 -0.06958074)
(0.0139858 0.002817107 -0.1042845)
(0.02605056 0.004882236 -0.1215786)
(0.04674067 0.006936533 -0.135934)
(0.07163207 0.00899155 -0.1443953)
(0.09948227 0.01110824 -0.1463612)
(0.129295 0.01333193 -0.1419804)
(0.1599212 0.01566144 -0.1312821)
(0.1900804 0.01802876 -0.1142552)
(0.2182986 0.02026927 -0.09099468)
(0.2419914 0.02199883 -0.06177414)
(0.2555284 0.02239146 -0.0275389)
(0.2529646 0.02060291 0.009898013)
(0.2390746 0.01751731 0.04252558)
(0.2210679 0.0142358 0.06989868)
(0.1992982 0.01111755 0.09208324)
(0.1715739 0.008489096 0.1075744)
(0.1365465 0.006661723 0.1139127)
(0.09534718 0.00577371 0.1095816)
(0.05132517 0.005089168 0.09593599)
(0.01015589 0.00189165 0.07512189)
(-0.0314001 -0.00108942 0.04089208)
(-0.07273017 -9.650185e-05 0.02888033)
(-0.1079177 0.0004243262 0.01705757)
(-0.1427298 0.0005441951 0.01283016)
(-0.1582759 0.0001845975 -0.02031536)
(-0.01251881 1.432838e-06 -0.05459575)
(-0.01990899 1.704902e-05 -0.05507931)
(-0.01998387 6.514916e-05 -0.05748392)
(-0.01362725 0.0002041504 -0.06333382)
(0.003054204 0.0006377608 -0.06981632)
(0.01509216 0.002017351 -0.1044801)
(0.02739376 0.00344808 -0.1217382)
(0.0483138 0.004871289 -0.1360281)
(0.07341123 0.006278851 -0.1443781)
(0.1014205 0.007696338 -0.1462067)
(0.1313212 0.009138996 -0.1416986)
(0.161956 0.01057695 -0.1309121)
(0.1920678 0.01191748 -0.113851)
(0.2202442 0.01301567 -0.09060541)
(0.2439613 0.01371045 -0.06141345)
(0.2575296 0.01385928 -0.02714276)
(0.2549874 0.01335905 0.01031111)
(0.2414092 0.01220843 0.04275468)
(0.2241147 0.01057392 0.06998735)
(0.2035324 0.008718038 0.09226215)
(0.1774475 0.00689694 0.1083312)
(0.1441192 0.005360036 0.1157449)
(0.1041022 0.004213974 0.1124859)
(0.06017124 0.003137255 0.09912944)
(0.01815128 0.001285989 0.07884195)
(-0.02564944 -0.0002093407 0.04271014)
(-0.06868915 0.0002447463 0.03049173)
(-0.1048662 0.0005304394 0.01800919)
(-0.1402722 0.0005830698 0.01334409)
(-0.1565818 0.0001971529 -0.01992467)
(-0.01249196 1.021031e-06 -0.05461823)
(-0.01981766 1.034528e-05 -0.05511908)
(-0.01979214 3.871058e-05 -0.05755771)
(-0.01329717 0.0001209521 -0.06344979)
(0.003578129 0.0003754532 -0.07000382)
(0.01576883 0.001176936 -0.1046605)
(0.02818219 0.001997068 -0.1218957)
(0.04922357 0.002803215 -0.1361309)
(0.07443288 0.003581135 -0.1444058)
(0.1025196 0.004330146 -0.1461572)
(0.1324419 0.005033038 -0.1415969)
(0.1630319 0.005626263 -0.1308093)
(0.1930306 0.005988631 -0.1138227)
(0.2210353 0.005990985 -0.09075118)
(0.2445927 0.00569175 -0.06185748)
(0.2582497 0.005632907 -0.02799623)
(0.2563115 0.006443505 0.008996475)
(0.2433881 0.007229153 0.04142839)
(0.2267218 0.007230862 0.06873546)
(0.206988 0.006638045 0.09132325)
(0.1820716 0.005670528 0.1080768)
(0.1499952 0.004560147 0.1165274)
(0.1108899 0.003491741 0.1142148)
(0.06721068 0.002427269 0.1012639)
(0.02461837 0.001183041 0.08095805)
(-0.02094895 0.0001484883 0.04429324)
(-0.06529623 0.0003047709 0.03175844)
(-0.1022381 0.0004521182 0.01880119)
(-0.1381178 0.000466038 0.01378822)
(-0.1550555 0.0001552415 -0.01957252)
(-0.01248 -4.636564e-08 -0.05462813)
(-0.01977661 2.18204e-06 -0.05513629)
(-0.0197062 1.001767e-05 -0.05758829)
(-0.01314913 3.321214e-05 -0.06349698)
(0.003807764 0.0001017867 -0.07007553)
(0.01605159 0.0003170961 -0.1047325)
(0.02849783 0.0005337053 -0.1219594)
(0.04956916 0.0007374619 -0.1361774)
(0.07479606 0.0009125581 -0.1444322)
(0.1028762 0.001034277 -0.146173)
(0.1327582 0.001052841 -0.1416279)
(0.1632626 0.0008715852 -0.1309042)
(0.1930992 0.0003409956 -0.1140666)
(0.2208084 -0.0006595737 -0.09129215)
(0.2439908 -0.001885183 -0.06295415)
(0.2577191 -0.002206506 -0.02998326)
(0.2568793 -0.0003490473 0.006025115)
(0.2449421 0.00219056 0.03857554)
(0.228829 0.003761924 0.066167)
(0.2095939 0.00443041 0.08927677)
(0.1853047 0.004369603 0.1067976)
(0.1538755 0.003790975 0.1162351)
(0.1151875 0.002966924 0.11482)
(0.0715642 0.002082785 0.1023943)
(0.02864399 0.001174338 0.08226301)
(-0.0179031 0.000324922 0.04536)
(-0.06313657 0.0002370485 0.0325097)
(-0.1005637 0.0002468835 0.0192893)
(-0.1367424 0.0002276955 0.01406633)
(-0.1540587 7.295473e-05 -0.01934216)
(-0.01248504 -1.621955e-06 -0.05462755)
(-0.01979124 -7.365761e-06 -0.05513306)
(-0.01973375 -2.104042e-05 -0.05758006)
(-0.01319422 -5.831036e-05 -0.06348177)
(0.003735662 -0.0001730114 -0.0700484)
(0.01595098 -0.0005376826 -0.104701)
(0.02836463 -0.0009150451 -0.1219311)
(0.04938914 -0.001300619 -0.1361632)
(0.07455538 -0.00170911 -0.1444439)
(0.1025652 -0.002183548 -0.1462234)
(0.1323709 -0.002799347 -0.1417335)
(0.1627818 -0.003674008 -0.1310948)
(0.1924477 -0.004965296 -0.1144109)
(0.2197815 -0.006764715 -0.09194734)
(0.2423861 -0.008689905 -0.0642495)
(0.2560317 -0.009310464 -0.03240609)
(0.25649 -0.006998806 0.002205684)
(0.2458371 -0.003218786 0.0347126)
(0.230273 -0.0002223211 0.06264408)
(0.2112428 0.001722364 0.08637301)
(0.1870547 0.002651366 0.1046417)
(0.1556252 0.002726303 0.1148798)
(0.1167863 0.002279948 0.1141348)
(0.07291549 0.001674265 0.1021408)
(0.02971962 0.001070147 0.08225546)
(-0.01714607 0.0003835659 0.04548229)
(-0.06265246 0.0001136152 0.03258705)
(-0.100232 -1.371813e-05 0.01934197)
(-0.136501 -6.568694e-05 0.01409491)
(-0.1539006 -2.664563e-05 -0.01931121)
(-0.01250667 -2.666669e-06 -0.05461641)
(-0.01986006 -1.52317e-05 -0.05510939)
(-0.01987169 -4.87257e-05 -0.05753336)
(-0.01342701 -0.0001429061 -0.06340486)
(0.003370185 -0.000437397 -0.06992411)
(0.0154775 -0.001370336 -0.1045676)
(0.02779738 -0.002329353 -0.1218103)
(0.04870684 -0.003288182 -0.1360836)
(0.07374612 -0.004261123 -0.14443)
(0.101636 -0.005307391 -0.1462884)
(0.131344 -0.006520755 -0.1418802)
(0.1616683 -0.008028436 -0.1313271)
(0.1911789 -0.009976758 -0.1147649)
(0.2181217 -0.01240236 -0.09254803)
(0.2400696 -0.01481472 -0.06539289)
(0.2534863 -0.01570677 -0.034547)
(0.2550854 -0.01338553 -0.001326182)
(0.2457673 -0.008933132 0.03086356)
(0.2307696 -0.00483633 0.05894181)
(0.2117478 -0.001695459 0.08314864)
(0.187205 0.0003132395 0.1019996)
(0.1551631 0.001192519 0.1127339)
(0.1156248 0.001273064 0.1123118)
(0.07121238 0.001063037 0.1005446)
(0.02776732 0.0008580673 0.08090061)
(-0.01881595 0.0004282546 0.04456536)
(-0.0639125 -3.498157e-06 0.03197189)
(-0.1012899 -0.0002454074 0.01894805)
(-0.1374275 -0.0003207977 0.01386843)
(-0.154609 -0.0001126891 -0.01948638)
(-0.01254174 -3.138547e-06 -0.05459331)
(-0.01997416 -2.152187e-05 -0.05506496)
(-0.02010536 -7.330487e-05 -0.05744753)
(-0.01382576 -0.0002193551 -0.06326728)
(0.002731904 -0.0006806667 -0.06969852)
(0.01463087 -0.002165571 -0.1043468)
(0.02678212 -0.003700107 -0.1216101)
(0.04750563 -0.005221644 -0.1359473)
(0.07235691 -0.006755649 -0.1443933)
(0.1000844 -0.00837579 -0.1463658)
(0.1296806 -0.01018384 -0.14206)
(0.1599354 -0.01230226 -0.1315849)
(0.1893368 -0.01484529 -0.1150951)
(0.215964 -0.01777456 -0.0930206)
(0.2373473 -0.02052028 -0.06622306)
(0.2504862 -0.0216388 -0.03608116)
(0.2528722 -0.01955072 -0.003956337)
(0.244665 -0.01486582 0.027773)
(0.230137 -0.009976166 0.05581303)
(0.21092 -0.005780289 0.08026618)
(0.1856191 -0.002703879 0.09939093)
(0.1524384 -0.0009217504 0.1102362)
(0.1117687 -0.0001934755 0.1097878)
(0.06664992 0.0001026377 0.09808408)
(0.02314491 0.000497229 0.07869612)
(-0.02242349 0.000485154 0.0430275)
(-0.06657366 -6.543337e-05 0.03084379)
(-0.1034177 -0.0003813812 0.01823667)
(-0.1392123 -0.0004699566 0.01346533)
(-0.1558936 -0.0001629452 -0.01979455)
(-0.01258567 -1.408763e-06 -0.05456126)
(-0.02012108 -2.156965e-05 -0.05500816)
(-0.02041417 -8.540828e-05 -0.05734437)
(-0.01437208 -0.0002681235 -0.06311103)
(0.001829937 -0.0008687961 -0.06945963)
(0.0133749 -0.002917763 -0.1041648)
(0.02522529 -0.005074461 -0.1214454)
(0.04568548 -0.00714854 -0.1358286)
(0.0703063 -0.009236553 -0.1443793)
(0.09785267 -0.01143954 -0.1464814)
(0.1273422 -0.01385689 -0.1422872)
(0.1575598 -0.01659333 -0.1318772)
(0.1869168 -0.01971697 -0.1154076)
(0.2133419 -0.02310763 -0.09336173)
(0.234311 -0.02613638 -0.06671269)
(0.2471874 -0.0274621 -0.03695008)
(0.2500181 -0.02567294 -0.005523389)
(0.2425702 -0.02099343 0.02576695)
(0.2283074 -0.01556021 0.05366076)
(0.2086573 -0.01046494 0.07814959)
(0.1822231 -0.006376503 0.0972396)
(0.1474622 -0.003706328 0.1077882)
(0.1053553 -0.002373671 0.1069781)
(0.0595592 -0.001614168 0.09526276)
(0.01644676 -0.0001459291 0.07612383)
(-0.02730133 0.000710011 0.04128122)
(-0.07010124 2.107343e-05 0.02946603)
(-0.1061315 -0.0003666516 0.01738258)
(-0.1414145 -0.0004773168 0.0129899)
(-0.1574146 -0.0001634588 -0.02015312)
(-0.0126264 7.161622e-06 -0.05451538)
(-0.02026938 -1.49873e-06 -0.05493655)
(-0.02074679 -5.462544e-05 -0.05722181)
(-0.01499344 -0.0002188744 -0.06294145)
(0.0007482615 -0.0008184452 -0.06925857)
(0.01169887 -0.003722898 -0.1041351)
(0.02304024 -0.006713005 -0.1213718)
(0.04315244 -0.009225937 -0.1357171)
(0.06751122 -0.01181524 -0.1443703)
(0.09486698 -0.01459405 -0.1466227)
(0.1242639 -0.01763768 -0.1425546)
(0.1544846 -0.02101956 -0.1322034)
(0.1838717 -0.02474992 -0.1157097)
(0.2102168 -0.02862304 -0.09358808)
(0.230926 -0.03195638 -0.06689772)
(0.2435832 -0.03349795 -0.03723229)
(0.2465942 -0.03198849 -0.006130405)
(0.2395433 -0.02739016 0.0248448)
(0.2252807 -0.02155837 0.05256974)
(0.2049279 -0.01569581 0.0769248)
(0.1770342 -0.0107003 0.09565262)
(0.1404411 -0.007273346 0.1054084)
(0.09691014 -0.005648721 0.1036904)
(0.05092219 -0.004827859 0.0917745)
(0.008641367 -0.001379073 0.0720044)
(-0.03293332 0.001605063 0.03948943)
(-0.07393604 0.0004436605 0.02789176)
(-0.1089045 -0.0001398866 0.01649204)
(-0.1435587 -0.0003116714 0.01252162)
(-0.1588343 -0.0001015833 -0.02049313)
(-0.0126441 2.80612e-05 -0.05444199)
(-0.02037047 5.394902e-05 -0.05483077)
(-0.02102663 5.352857e-05 -0.0570304)
(-0.0155756 7.43434e-05 -0.0625943)
(-0.0004752434 -0.0001800678 -0.06917547)
(0.009632464 -0.004928379 -0.1033097)
(0.02034248 -0.009220396 -0.1211989)
(0.03986134 -0.01179058 -0.1352952)
(0.06393528 -0.01462732 -0.1442019)
(0.0910699 -0.01794203 -0.1466999)
(0.1203738 -0.02162569 -0.1428098)
(0.1506323 -0.02569697 -0.1325369)
(0.1801211 -0.03009403 -0.1159982)
(0.2065004 -0.03451819 -0.09372435)
(0.2270866 -0.03822412 -0.06684535)
(0.2395768 -0.04001129 -0.03706007)
(0.2425853 -0.03873052 -0.005982708)
(0.2356193 -0.03418306 0.02483081)
(0.2210873 -0.02798674 0.05240959)
(0.1997798 -0.02139841 0.07647308)
(0.1702524 -0.01549195 0.09442274)
(0.1320167 -0.01118096 0.102523)
(0.08818649 -0.008751297 0.09851081)
(0.0460084 -0.006935019 0.08416622)
(0.002943184 -0.001376802 0.0539358)
(-0.04076577 0.002056837 0.03695337)
(-0.07768186 0.0008586782 0.02573121)
(-0.1112143 0.0002619196 0.01553492)
(-0.145159 3.736592e-05 0.01210405)
(-0.1598023 2.985332e-05 -0.02075807)
(-0.01260787 6.616334e-05 -0.05431613)
(-0.02035585 0.0001503892 -0.05465452)
(-0.02116327 0.0002294017 -0.05661705)
(-0.01618264 0.0003772085 -0.06167331)
(-0.004353491 0.0002884575 -0.06845476)
(0.009385615 -0.004612611 -0.09011642)
(0.0208846 -0.01088324 -0.1177334)
(0.03651312 -0.01429465 -0.1335532)
(0.05970241 -0.01764794 -0.143324)
(0.0864943 -0.02152671 -0.1464759)
(0.1156407 -0.02589171 -0.1429138)
(0.1459344 -0.0307198 -0.1327969)
(0.1755739 -0.03587404 -0.1162385)
(0.2020802 -0.04095314 -0.0937839)
(0.2226563 -0.04512928 -0.06662603)
(0.2350337 -0.04720734 -0.03657245)
(0.2379234 -0.04609759 -0.005297535)
(0.2307983 -0.04150528 0.02550409)
(0.2157524 -0.03486927 0.05299427)
(0.1932812 -0.02744229 0.07667291)
(0.1621045 -0.02035827 0.09358186)
(0.1226611 -0.01457637 0.09982982)
(0.07903216 -0.01030035 0.09364587)
(0.03854845 -0.006477504 0.07824368)
(-0.003099842 -0.0009502821 0.04634206)
(-0.04585793 0.001444703 0.03489793)
(-0.08061555 0.001069695 0.02420966)
(-0.1125723 0.0007914891 0.0149472)
(-0.1457216 0.0005811242 0.0118603)
(-0.1599421 0.0002367573 -0.02087132)
(-0.01247513 0.0001242958 -0.05410541)
(-0.02014441 0.0002807129 -0.05438898)
(-0.0210918 0.0004205715 -0.05614185)
(-0.01671379 0.000534741 -0.06069616)
(-0.006209053 0.0001707248 -0.06737977)
(0.00810914 -0.004135433 -0.08624187)
(0.01905434 -0.01130921 -0.1150671)
(0.03313992 -0.01619176 -0.131118)
(0.0552328 -0.02053517 -0.1418017)
(0.08128688 -0.02519191 -0.1456976)
(0.1100892 -0.03039216 -0.1426616)
(0.1403489 -0.03611261 -0.1328407)
(0.1701444 -0.04216244 -0.116353)
(0.1968364 -0.04803859 -0.09375398)
(0.2174881 -0.05281047 -0.06629395)
(0.2298049 -0.05524372 -0.03589013)
(0.2325079 -0.05425849 -0.004261632)
(0.2250356 -0.0494998 0.0266728)
(0.2092349 -0.04228435 0.05418313)
(0.1853386 -0.03382232 0.07751112)
(0.1523565 -0.02524127 0.09341687)
(0.1117473 -0.01754693 0.09813998)
(0.06839828 -0.01116837 0.09070118)
(0.02945695 -0.005649257 0.07496621)
(-0.009562822 -0.0005716327 0.04370688)
(-0.04952381 0.001250742 0.03398427)
(-0.08208209 0.001548923 0.02380301)
(-0.1123934 0.001582716 0.01496617)
(-0.1446645 0.001383132 0.01193758)
(-0.15879 0.000537091 -0.02073094)
(-0.01219132 0.000212789 -0.05376638)
(-0.01964055 0.0004611818 -0.05402328)
(-0.02068293 0.0006458635 -0.05559213)
(-0.01699894 0.0007129983 -0.05972476)
(-0.00786122 0.0002157833 -0.06581696)
(0.006869832 -0.003505286 -0.08214935)
(0.0170784 -0.01135791 -0.1117625)
(0.02951095 -0.01761427 -0.1282595)
(0.05020797 -0.02312371 -0.1396469)
(0.07536861 -0.02880718 -0.1443091)
(0.1037015 -0.03504674 -0.1419079)
(0.1338399 -0.04184475 -0.132524)
(0.1637556 -0.0489745 -0.116243)
(0.1906508 -0.05583134 -0.09360093)
(0.2114324 -0.0613587 -0.06588535)
(0.223734 -0.06424014 -0.03511595)
(0.2262133 -0.0633592 -0.003045588)
(0.2182434 -0.0583176 0.02813065)
(0.2014505 -0.05036607 0.05574581)
(0.1758736 -0.04067706 0.07874077)
(0.1410224 -0.0303999 0.09369129)
(0.09951907 -0.02069818 0.09723702)
(0.05695313 -0.01230476 0.08916428)
(0.02033533 -0.005241438 0.07356423)
(-0.01505564 3.33923e-05 0.0428068)
(-0.0513516 0.001803124 0.03405906)
(-0.08133623 0.002491402 0.0242591)
(-0.1098592 0.002754847 0.01562816)
(-0.1412032 0.002507211 0.01239718)
(-0.15575 0.0009457479 -0.02023485)
(-0.01166603 0.0003522947 -0.05318976)
(-0.01868034 0.0007330897 -0.05345811)
(-0.01973072 0.0009853495 -0.05490211)
(-0.01667584 0.001165136 -0.05863008)
(-0.007555991 0.001022884 -0.06436599)
(0.004699191 -0.003407309 -0.08484634)
(0.01284069 -0.01201674 -0.1094164)
(0.02513392 -0.01905587 -0.1249035)
(0.0445686 -0.02559177 -0.136717)
(0.0687272 -0.03239812 -0.1420322)
(0.09647815 -0.03980317 -0.1403844)
(0.1263844 -0.04784949 -0.1316376)
(0.1563415 -0.05626973 -0.1157765)
(0.1834124 -0.06433428 -0.09327233)
(0.2043442 -0.07082086 -0.06542241)
(0.2166638 -0.07428194 -0.03434025)
(0.2189032 -0.07351626 -0.001814734)
(0.2103205 -0.06808201 0.02964608)
(0.192338 -0.05921783 0.05736691)
(0.1649333 -0.04809981 0.07995336)
(0.128385 -0.03598933 0.09392173)
(0.08656586 -0.02431767 0.09654297)
(0.04562691 -0.01405 0.08836725)
(0.0123854 -0.005060348 0.07330081)
(-0.01843815 0.001001103 0.04303228)
(-0.05069225 0.002849747 0.03482129)
(-0.07761851 0.003831394 0.02546927)
(-0.10407 0.004287391 0.01697497)
(-0.1343805 0.003965641 0.01331831)
(-0.1500323 0.00144066 -0.01922726)
(-0.01077143 0.0005612064 -0.05214849)
(-0.01705248 0.001111803 -0.05245096)
(-0.01798273 0.001423623 -0.05361252)
(-0.01558522 0.001649185 -0.05653789)
(-0.009533501 0.001710675 -0.06183731)
(0.004321575 -0.002362562 -0.06974115)
(0.01221734 -0.01178736 -0.1027717)
(0.0205962 -0.02019477 -0.119409)
(0.03837545 -0.02789556 -0.131931)
(0.0614992 -0.03583319 -0.1382689)
(0.08851767 -0.04448096 -0.1376817)
(0.1180198 -0.05395493 -0.129923)
(0.1478746 -0.06392635 -0.114814)
(0.1750358 -0.07349418 -0.09271863)
(0.1960983 -0.08120814 -0.06492537)
(0.2084545 -0.08542834 -0.03364386)
(0.2104546 -0.0848148 -0.0007249202)
(0.2011895 -0.07886467 0.03097829)
(0.181912 -0.06885997 0.05868014)
(0.152735 -0.05606543 0.08061745)
(0.1149717 -0.04201466 0.09334232)
(0.07371698 -0.02858778 0.09490395)
(0.03555683 -0.0168575 0.08686082)
(0.00647648 -0.005246212 0.07195915)
(-0.01931048 0.002650918 0.0436053)
(-0.04692594 0.004342883 0.03585121)
(-0.07019394 0.005458017 0.02721385)
(-0.09408932 0.006096611 0.01899954)
(-0.1230724 0.005726259 0.01475842)
(-0.1405699 0.0019334 -0.01744745)
(-0.009360213 0.0008488388 -0.05019925)
(-0.0145639 0.001585277 -0.05054889)
(-0.01530504 0.001919811 -0.05146892)
(-0.01354356 0.002008626 -0.05371411)
(-0.008918525 0.00183822 -0.05851556)
(0.002870925 -0.000483455 -0.06413763)
(0.008879523 -0.01019524 -0.09544431)
(0.01578087 -0.02098238 -0.1116666)
(0.03210614 -0.02983782 -0.1247233)
(0.05401315 -0.03874222 -0.1323895)
(0.0800587 -0.0486796 -0.1334301)
(0.1088885 -0.05982451 -0.1272041)
(0.1384044 -0.07171917 -0.1132963)
(0.1655001 -0.08320259 -0.09194341)
(0.1866324 -0.09250383 -0.06443217)
(0.1990294 -0.09771571 -0.03309448)
(0.2008091 -0.09730101 0.0001039594)
(0.1908514 -0.09065832 0.03193396)
(0.1703092 -0.07915749 0.05936751)
(0.1396696 -0.06424117 0.0802054)
(0.1014979 -0.04784427 0.09096219)
(0.06223902 -0.03224241 0.09040299)
(0.0304897 -0.01842393 0.08086871)