/*--------------------------------*- C++ -*----------------------------------*\
| =========                 |                                                 |
| \\      /  F ield         | OpenFOAM: The Open Source CFD Toolbox           |
|  \\    /   O peration     | Version:  2506                                  |
|   \\  /    A nd           | Website:  www.openfoam.com                      |
|    \\/     M anipulation  |                                                 |
\*---------------------------------------------------------------------------*/
FoamFile
{
    version     2.0;
    format      ascii;
    arch        "LSB;label=32;scalar=64";
    class       volScalarField;
    location    "350/airRegion";
    object      epsilon;
}
// * * * * * * * * * * * * * * * * * * * * * * * * * * * * * * * * * * * * * //

dimensions      [0 2 -3 0 0 0 0];

internalField   nonuniform List<scalar> 
85779
(
0.008338078
0.007761884
0.007623173
0.007579659
0.007561476
0.007539284
0.007430794
0.00685063
0.003390853
0.001983792
0.001288033
0.0009104255
0.000695696
0.0005734593
0.0005080694
0.0004790111
0.0004797398
0.0005249551
0.0006391006
0.0008742558
0.001357407
0.002438291
0.00527287
0.007231347
0.007534603
0.007614442
0.007683483
0.007871579
0.008979725
0.0234681
0.00792893
0.006987391
0.006692252
0.006578124
0.00651603
0.006435074
0.006161909
0.004976913
0.002714182
0.001710848
0.001172986
0.0008602812
0.0006732254
0.0005636284
0.0005044859
0.0004781828
0.000477979
0.0005153421
0.0006124351
0.0008110963
0.001195373
0.001935132
0.003374879
0.005961521
0.006443619
0.006603711
0.006730037
0.006980789
0.008071326
0.01945244
0.007936284
0.006912616
0.006554723
0.00640041
0.006304676
0.006164334
0.005666905
0.003356277
0.002143645
0.001468117
0.001063245
0.0008099109
0.0006498816
0.0005520181
0.0004968215
0.0004700546
0.0004658637
0.0004942831
0.0005770152
0.000749334
0.001078067
0.001697106
0.002927613
0.005687409
0.006222368
0.006423115
0.006584758
0.006865086
0.007959249
0.02009671
0.007986705
0.0069563
0.006578827
0.00640513
0.006282878
0.006051705
0.004741481
0.002909101
0.001904442
0.001339543
0.000995368
0.0007749733
0.0006321525
0.0005422723
0.0004893458
0.0004610448
0.0004520608
0.0004715086
0.0005422992
0.0006984073
0.001003635
0.001590922
0.002802611
0.005644214
0.006211045
0.006441237
0.006627683
0.006921618
0.007999927
0.02063575
0.00802599
0.007003047
0.006620712
0.00643752
0.006294819
0.006010793
0.004866457
0.002733624
0.001785539
0.001268656
0.0009541455
0.000751574
0.0006189261
0.0005338965
0.000481889
0.0004514412
0.0004373635
0.000448038
0.000508457
0.0006539716
0.0009491111
0.001529493
0.002750004
0.005644282
0.006239781
0.006494787
0.006699488
0.00699899
0.008056736
0.02101923
0.008051131
0.007035409
0.00665194
0.00646287
0.006305138
0.005959235
0.004219195
0.002569855
0.001703252
0.001219551
0.0009242331
0.000733468
0.0006076981
0.0005258409
0.0004740051
0.0004411282
0.0004218677
0.0004239652
0.0004748407
0.0006123086
0.0009017494
0.001480116
0.002709468
0.005642853
0.006265669
0.006542567
0.006761865
0.00706577
0.008124624
0.02129289
0.008066138
0.007055246
0.006671287
0.006477253
0.00630283
0.005896256
0.003939301
0.002396379
0.001610602
0.00116925
0.0008957724
0.0007166255
0.0005969209
0.000517597
0.0004656298
0.0004302454
0.0004057974
0.0003994753
0.0004413209
0.0005719706
0.0008568177
0.001432842
0.002667116
0.005630989
0.006279876
0.006576569
0.00680818
0.007115513
0.008174984
0.02148078
0.008074612
0.007066406
0.006681704
0.006483006
0.006290287
0.005799503
0.003357294
0.002163015
0.00151231
0.001121381
0.0008697754
0.0007011896
0.0005866593
0.000509357
0.0004570811
0.0004191694
0.0003895158
0.0003748927
0.0004082547
0.0005329937
0.0008134579
0.00138585
0.002621312
0.005608885
0.00628255
0.006597453
0.006839915
0.007150371
0.008209808
0.02160829
0.008079029
0.007071939
0.006686058
0.006483414
0.006280481
0.005758298
0.003234865
0.002081431
0.001463596
0.001091694
0.0008510156
0.0006887075
0.0005775681
0.0005015976
0.0004488362
0.0004083736
0.0003734552
0.0003506622
0.0003763036
0.0004960824
0.0007722827
0.001339904
0.00257349
0.005578705
0.006276047
0.006607848
0.006860123
0.007173732
0.008233192
0.0216934
0.008081119
0.007074233
0.006686967
0.006480771
0.006270193
0.005730309
0.003195068
0.002046835
0.001437606
0.00107294
0.0008375444
0.0006787988
0.0005697889
0.0004946513
0.0004412939
0.0003982824
0.0003581032
0.0003274673
0.000346394
0.0004621462
0.0007342398
0.00129638
0.0025258
0.005540651
0.006262926
0.006610591
0.006871801
0.007188627
0.008248384
0.02174866
0.008082055
0.007075014
0.006686424
0.006476898
0.006258949
0.005703261
0.003165543
0.002021568
0.001418191
0.001058536
0.0008268679
0.0006706806
0.0005632202
0.0004886507
0.0004346671
0.0003892558
0.0003441849
0.0003065351
0.0003198075
0.0004320719
0.0006999414
0.001255911
0.002478897
0.005490983
0.006245405
0.006608292
0.00687756
0.007197533
0.008257825
0.02178315
0.008082584
0.007075425
0.006685769
0.006472819
0.006245363
0.005667495
0.003127259
0.001993109
0.001398899
0.001045499
0.0008177473
0.0006639281
0.000557772
0.0004836232
0.0004290963
0.000381793
0.0003329257
0.0002897833
0.0002981568
0.0004065975
0.0006691826
0.00121703
0.002430457
0.00543906
0.006225739
0.00660309
0.006879531
0.007202407
0.008263352
0.02180353
0.008083024
0.007075924
0.00668548
0.006468282
0.006224655
0.00559962
0.003067007
0.001957505
0.001378882
0.001033685
0.0008101609
0.0006585432
0.000553458
0.0004796273
0.0004248124
0.0003765754
0.000325776
0.0002792842
0.0002830811
0.0003862972
0.000640649
0.001173472
0.002362814
0.005361032
0.006199064
0.006595594
0.006879247
0.007204728
0.008266327
0.02181465
0.008083386
0.007076444
0.00668552
0.00646408
0.006200291
0.005499275
0.002997931
0.001923536
0.00136214
0.001024689
0.0008047077
0.0006547378
0.0005503484
0.0004767127
0.0004219528
0.0003739825
0.000323561
0.0002763524
0.0002758591
0.0003719078
0.0006130877
0.001114361
0.002225865
0.005117749
0.00614367
0.006584323
0.006877681
0.007205565
0.008267721
0.02181995
0.008083548
0.007076678
0.006685538
0.00646141
0.006180871
0.005379711
0.002949051
0.00190588
0.001354535
0.001020656
0.0008021467
0.0006527787
0.0005485331
0.0004748632
0.0004203489
0.0003736556
0.000325855
0.0002808221
0.0002769872
0.0003652982
0.000592583
0.001055772
0.002013681
0.004036708
0.006044006
0.006571745
0.006875817
0.00720556
0.008268111
0.02182153
0.008083484
0.007076547
0.006685565
0.006464111
0.006200223
0.005497886
0.00299761
0.001922158
0.001360117
0.001022679
0.0008028568
0.0006528593
0.0005481696
0.0004741914
0.0004198861
0.0003748585
0.0003309031
0.0002903821
0.0002854595
0.0003678478
0.0005874445
0.001039667
0.001992471
0.004363942
0.006040872
0.006568572
0.006874761
0.007205055
0.008267773
0.02182047
0.008083266
0.00707621
0.006685518
0.006466717
0.006214889
0.00555274
0.003042278
0.001946558
0.001372668
0.00102926
0.0008064835
0.0006549523
0.0005493992
0.000474982
0.0004208886
0.0003774905
0.0003373109
0.0003019198
0.0002984938
0.0003783969
0.0005963602
0.001049992
0.001986011
0.003954237
0.006030453
0.006568945
0.006874196
0.007204038
0.00826671
0.02181676
0.008082988
0.007075865
0.006685796
0.006471372
0.006239231
0.00564821
0.003110525
0.001981934
0.001390992
0.001039387
0.0008125421
0.0006589018
0.000552265
0.0004774441
0.000423695
0.0003818404
0.0003449182
0.0003142768
0.0003142452
0.0003954453
0.0006189242
0.001093523
0.002098699
0.004530699
0.006076887
0.006575377
0.006873923
0.007202209
0.008264632
0.02180935
0.008082735
0.007075736
0.006686536
0.0064754
0.006253957
0.00569104
0.003152949
0.002010793
0.001409252
0.00105103
0.0008202943
0.0006644429
0.0005566865
0.0004815812
0.0004283695
0.0003880534
0.0003539536
0.0003275237
0.0003320665
0.0004175487
0.000651475
0.001158499
0.002267463
0.005059551
0.006147658
0.006585296
0.006873094
0.007198943
0.008260978
0.0217962
0.008082431
0.007075754
0.006687738
0.006479572
0.006265087
0.00571754
0.003181033
0.002033631
0.001426188
0.001063327
0.0008293307
0.0006713876
0.0005625369
0.0004872535
0.0004347566
0.0003960507
0.0003645815
0.0003420888
0.0003519496
0.0004432398
0.000687635
0.001221913
0.002412766
0.005376206
0.006207867
0.006593726
0.006870312
0.007193293
0.008254893
0.0217742
0.008081614
0.007075188
0.006688524
0.006483464
0.006275597
0.005743313
0.003213494
0.002060788
0.00144643
0.001078183
0.0008403691
0.0006799223
0.0005697438
0.0004942456
0.000442572
0.0004055978
0.0003768015
0.0003583196
0.0003741173
0.0004719682
0.000724672
0.001271882
0.002484494
0.005465074
0.006232983
0.006596208
0.0068639
0.007183891
0.008245104
0.02173878
0.008079523
0.007072872
0.006687513
0.00648589
0.006286455
0.005779148
0.003300615
0.002120537
0.001482081
0.001100473
0.0008552433
0.0006905923
0.0005782902
0.0005022844
0.0004514359
0.0004163357
0.0003904348
0.0003763483
0.0003987536
0.0005038802
0.0007641718
0.001319485
0.002539435
0.005518531
0.006248411
0.006593596
0.006852055
0.007168847
0.008229807
0.02168335
0.00807502
0.00706715
0.006682807
0.006485274
0.006300416
0.005853847
0.00364786
0.002287425
0.001556334
0.00113752
0.0008762431
0.0007039579
0.0005880862
0.0005110111
0.0004608792
0.0004277964
0.0004051382
0.0003960722
0.0004258234
0.0005389341
0.000806779
0.00136877
0.002592531
0.005564789
0.006258066
0.006584176
0.006832249
0.00714568
0.008206549
0.02159886
0.008066453
0.007055829
0.006672181
0.006479094
0.006308697
0.005934913
0.004498527
0.002489103
0.001641085
0.001182068
0.0009015772
0.0007193878
0.0005986761
0.0005199415
0.0004703678
0.0004394386
0.0004204412
0.000417177
0.0004550282
0.0005767398
0.0008521273
0.001419718
0.00264384
0.005595863
0.006258997
0.006564987
0.00680139
0.007111305
0.008172047
0.02147259
0.008051344
0.007035815
0.006652566
0.006464051
0.006308403
0.005971309
0.004266094
0.002596113
0.001718372
0.001227874
0.0009286112
0.0007358032
0.0006095005
0.0005286069
0.000479401
0.0004507305
0.0004358215
0.0004392066
0.0004858911
0.0006167674
0.0008996461
0.001471609
0.002692477
0.005615287
0.006248947
0.006533204
0.006756296
0.007062261
0.008122179
0.02128636
0.00802607
0.007003197
0.006620921
0.006437984
0.006296744
0.00601915
0.004890634
0.002756012
0.001800635
0.001277471
0.0009587818
0.0007539758
0.0006208129
0.0005369228
0.0004876968
0.0004612758
0.0004508121
0.0004616848
0.00051799
0.0006589218
0.0009499638
0.001525806
0.002739484
0.005624464
0.006227586
0.006487943
0.006695349
0.006996349
0.008055319
0.02101474
0.007986652
0.006956178
0.006578576
0.00640497
0.006284714
0.006063431
0.004789739
0.002951494
0.001931779
0.001354463
0.001002599
0.0007782973
0.0006343354
0.0005454839
0.0004953619
0.0004709257
0.0004650879
0.0004842289
0.0005512624
0.0007044685
0.001007499
0.001591712
0.002798
0.005631784
0.006203299
0.006436926
0.006625001
0.00691983
0.007999094
0.02063299
0.007936165
0.006912365
0.006554266
0.006399818
0.006304952
0.006169335
0.005685726
0.003393651
0.002180402
0.001489106
0.001073058
0.0008141611
0.0006523433
0.0005553228
0.000502868
0.0004797847
0.0004784475
0.0005065117
0.0005860833
0.0007568814
0.001084611
0.001700833
0.002924821
0.005680737
0.006218447
0.006421018
0.006583358
0.006864034
0.007958723
0.02009533
0.007928816
0.006987144
0.006691802
0.006577442
0.006515486
0.006436153
0.006168617
0.0050017
0.002791708
0.001744241
0.001183989
0.0008642172
0.0006755051
0.0005668606
0.000510402
0.0004875566
0.000489998
0.0005272404
0.0006219223
0.0008201923
0.001203376
0.001933114
0.003328233
0.005954277
0.00644213
0.006603191
0.006729561
0.006980286
0.008071042
0.01945191
0.008338014
0.007761735
0.00762288
0.007579141
0.007560709
0.007538613
0.007433803
0.006889656
0.003742088
0.002093493
0.001311301
0.0009153052
0.0006977644
0.0005764341
0.0005136325
0.0004879394
0.0004913751
0.0005367402
0.0006490105
0.0008843263
0.001361917
0.002375112
0.004558119
0.007191311
0.007533092
0.007614818
0.007683592
0.007871478
0.008979652
0.02346806
0.00792893
0.006987393
0.006692257
0.00657813
0.006516036
0.006435069
0.006161811
0.004976765
0.002714172
0.001710853
0.001172994
0.000860305
0.0006732835
0.0005637393
0.0005046786
0.000478511
0.0004784843
0.0005159814
0.0006130884
0.0008116535
0.001195679
0.001935052
0.003374213
0.005960413
0.006443219
0.006603733
0.006730231
0.006981023
0.008071526
0.01945292
0.007247093
0.005588337
0.004912479
0.004599202
0.004409616
0.004214059
0.003866259
0.003105785
0.002141769
0.001491646
0.001078874
0.0008172464
0.0006530471
0.0005545696
0.0005011616
0.0004774199
0.0004763315
0.0005061372
0.0005866799
0.000753095
0.001064934
0.001612348
0.002503033
0.003681494
0.004223291
0.004492238
0.004686978
0.004941811
0.005580789
0.008429698
0.007200428
0.005339868
0.004487392
0.004052708
0.003775683
0.003507964
0.003118627
0.002400326
0.001766807
0.001305789
0.0009879187
0.0007731659
0.000631766
0.0005435808
0.0004935522
0.0004690596
0.0004639027
0.0004848712
0.0005508056
0.0006909531
0.0009502547
0.001390022
0.002079994
0.003003882
0.003525746
0.003827178
0.004054747
0.004323978
0.004908357
0.007443244
0.007249334
0.005354005
0.004436117
0.003939896
0.003605334
0.003272671
0.002794008
0.002123675
0.001584743
0.001198284
0.0009280975
0.0007413589
0.0006152913
0.0005343298
0.0004861855
0.00045993
0.0004499263
0.0004620025
0.0005153813
0.0006375373
0.0008692051
0.001267293
0.001906294
0.002803765
0.003346229
0.003683409
0.003951316
0.004267052
0.00494277
0.008047611
0.00729468
0.005405234
0.004466907
0.003941623
0.003569723
0.003187377
0.002652069
0.001992223
0.001490997
0.001137518
0.0008909924
0.0007197918
0.0006029617
0.0005263757
0.000478824
0.0004501927
0.0004350268
0.0004384012
0.0004808747
0.0005908762
0.0008090533
0.001193886
0.001828538
0.002749573
0.00333195
0.003708516
0.004013542
0.004366492
0.005110653
0.008691591
0.007324563
0.005445616
0.00450135
0.00396145
0.003565879
0.00314893
0.002552952
0.001912133
0.001432367
0.001097436
0.0008649819
0.000703519
0.0005926384
0.0005187205
0.0004709917
0.0004396815
0.0004192229
0.000414058
0.0004466745
0.000547835
0.0007588049
0.001139779
0.001780904
0.002731988
0.003356374
0.003769304
0.004103516
0.004479659
0.005262887
0.009165864
0.007342198
0.005470722
0.00452403
0.003974314
0.003558586
0.003109662
0.002455635
0.001830111
0.001376605
0.001061649
0.0008423723
0.0006891395
0.0005829264
0.0005108881
0.0004626467
0.0004285587
0.0004027307
0.000389096
0.0004125823
0.0005068387
0.0007130775
0.001092116
0.001739266
0.002714573
0.003377255
0.003822029
0.004179094
0.004569696
0.005373753
0.009492705
0.007351836
0.005484416
0.004535719
0.003978142
0.003544874
0.003065705
0.002334224
0.00174598
0.001325076
0.001029993
0.0008225051
0.0006761746
0.0005736929
0.0005030461
0.0004541564
0.0004172597
0.0003859203
0.0003637777
0.0003788665
0.0004676707
0.0006701833
0.001046797
0.001696519
0.002686917
0.003383855
0.003856768
0.004232734
0.004633561
0.005449347
0.009713036
0.007356605
0.005490806
0.00453999
0.00397633
0.003531689
0.00303857
0.002286019
0.001703209
0.001293413
0.001007801
0.0008071186
0.0006652513
0.0005653416
0.0004956486
0.0004460547
0.0004063068
0.0003691965
0.0003384727
0.0003461245
0.0004308259
0.0006301404
0.001003365
0.001651889
0.002646763
0.003376346
0.003874644
0.004267011
0.004676088
0.005499164
0.009859008
0.007358598
0.005492963
0.004539895
0.003971098
0.003517903
0.003017757
0.002259886
0.001678226
0.001272836
0.0009919606
0.0007952147
0.0006562043
0.0005580706
0.0004890538
0.000438753
0.0003960975
0.0003529705
0.000313838
0.0003152998
0.0003970797
0.0005935026
0.0009626852
0.001607893
0.002602376
0.003358984
0.003879748
0.004286577
0.004702816
0.005530862
0.009953215
0.007359164
0.00549298
0.004537581
0.003963802
0.003501804
0.002996392
0.002237155
0.001657833
0.001256335
0.0009792176
0.0007854878
0.0006486527
0.0005518818
0.0004833608
0.0004323497
0.0003868665
0.0003379556
0.000291299
0.000287843
0.0003672984
0.0005607338
0.0009254501
0.001567032
0.002564659
0.003336491
0.00387637
0.004295873
0.00471844
0.005550101
0.01001169
0.007359142
0.005492184
0.004534438
0.003955229
0.00348284
0.002968624
0.002210135
0.001636487
0.001240777
0.0009680387
0.0007772963
0.0006423832
0.0005467074
0.0004785028
0.0004268317
0.0003790768
0.0003256836
0.000273294
0.0002656607
0.0003423334
0.0005318429
0.0008907185
0.001526518
0.002524988
0.003310317
0.003867748
0.004298522
0.004726644
0.005561021
0.01004599
0.007358974
0.005491302
0.004531328
0.003946008
0.003460089
0.002928435
0.002175977
0.001613647
0.001226245
0.0009585386
0.0007707025
0.0006374192
0.0005425482
0.0004745275
0.0004224833
0.0003736538
0.0003181127
0.0002624276
0.0002506628
0.0003230301
0.0005065194
0.0008558395
0.001478595
0.00247038
0.003277542
0.003855411
0.004297174
0.004730199
0.005566644
0.01006446
0.007358853
0.005490691
0.004529028
0.003938414
0.00343922
0.002885493
0.002143697
0.001594449
0.001215091
0.0009516924
0.0007660906
0.0006339033
0.00053946
0.0004715122
0.0004195397
0.0003711672
0.0003163402
0.0002602973
0.0002443331
0.0003104538
0.0004850804
0.0008182032
0.001409966
0.002366677
0.003229177
0.003839592
0.004293723
0.004731104
0.00556909
0.01007303
0.007358824
0.005490476
0.004528103
0.003935017
0.00342808
0.002856553
0.002126916
0.001585851
0.001210277
0.0009486599
0.0007639006
0.0006320098
0.0005375072
0.000469399
0.0004177121
0.0003710743
0.0003197965
0.0002667058
0.0002471687
0.0003060293
0.00047121
0.0007877055
0.001341085
0.002218411
0.003179555
0.00382554
0.004290158
0.004730662
0.005569615
0.0100754
0.00735891
0.005490706
0.004528845
0.003937918
0.003438425
0.002884813
0.002142624
0.001592792
0.001213263
0.0009499532
0.0007643716
0.0006319224
0.0005368863
0.0004683134
0.0004167453
0.0003721863
0.0003259466
0.0002786458
0.000257827
0.0003103011
0.0004685423
0.0007776662
0.001321193
0.002198683
0.003164195
0.003819902
0.00428799
0.004729562
0.005568818
0.01007351
0.007359117
0.005491355
0.004530797
0.003943731
0.003453334
0.002913026
0.00216581
0.001607398
0.001221811
0.0009549517
0.0007673574
0.0006337007
0.0005378463
0.0004687309
0.000417262
0.0003745634
0.0003329522
0.0002919395
0.0002727953
0.0003218999
0.0004768386
0.0007858267
0.001330806
0.002196558
0.003169803
0.003821339
0.004287155
0.004727833
0.005566714
0.01006735
0.007359444
0.005492403
0.004533888
0.003952702
0.003476354
0.002957666
0.002200291
0.001628822
0.001234716
0.0009629419
0.000772543
0.0006372706
0.000540502
0.0004709946
0.0004198398
0.0003788038
0.0003408778
0.0003052736
0.0002897254
0.0003388779
0.0004951523
0.0008125886
0.00137726
0.002272858
0.003198539
0.003829473
0.00428712
0.004724898
0.005562687
0.01005512
0.007359815
0.005493665
0.0045374
0.003961571
0.003495973
0.002988052
0.002228296
0.001649596
0.00124905
0.0009727594
0.0007794578
0.0006424411
0.0005447788
0.0004750942
0.000424537
0.0003851228
0.0003501771
0.0003189902
0.0003080051
0.0003599589
0.0005212039
0.0008526089
0.001448877
0.0023926
0.003245826
0.003841637
0.004286327
0.004719561
0.005555526
0.01003325
0.007360008
0.005494759
0.004540754
0.003969565
0.003512206
0.003009267
0.002249838
0.001668043
0.001263494
0.0009836975
0.0007877693
0.0006490315
0.0005505144
0.0004808205
0.000431103
0.000393381
0.0003610908
0.0003337532
0.0003278668
0.0003843305
0.0005517099
0.0008956239
0.001518084
0.002498762
0.003290721
0.003851819
0.00428227
0.004709969
0.005543362
0.009996272
0.007359525
0.005494873
0.004543116
0.003976474
0.003526653
0.003028476
0.002271973
0.001688424
0.001280141
0.0009966709
0.0007978066
0.0006570662
0.0005575505
0.0004878846
0.0004391722
0.0004032815
0.0003736335
0.0003500463
0.0003497345
0.0004117884
0.0005852378
0.0009368672
0.001568236
0.002551104
0.003317513
0.003855094
0.004272027
0.004693494
0.005523374
0.009936236
0.007357515
0.005492665
0.004543097
0.003981532
0.003540541
0.003051907
0.002309198
0.001720845
0.001304244
0.001014082
0.0008105125
0.0006667666
0.0005657434
0.000495945
0.0004483081
0.0004144212
0.0003876229
0.0003680728
0.0003739138
0.0004424566
0.0006221634
0.0009794414
0.001613561
0.002589271
0.003335138
0.003850049
0.004252262
0.004666541
0.005491484
0.009841739
0.007352642
0.005486075
0.004538548
0.00398328
0.003555698
0.003088462
0.002397023
0.00178471
0.00134406
0.001039172
0.00082701
0.0006783443
0.0005748881
0.0005045882
0.0004579989
0.0004262959
0.0004027001
0.0003877613
0.0004004606
0.0004763457
0.0006627058
0.001024894
0.001659339
0.002623654
0.00334419
0.003833435
0.004218679
0.004624418
0.00544201
0.009696739
0.007342856
0.005472088
0.00452638
0.003978508
0.003566518
0.003125143
0.002500647
0.001856894
0.001391797
0.001069918
0.000846752
0.0006914759
0.0005845975
0.0005133238
0.0004676777
0.0004383257
0.000418364
0.0004088016
0.0004291589
0.0005132416
0.00070674
0.001073522
0.001707009
0.002660236
0.003342301
0.003801323
0.004166543
0.004561491
0.005367199
0.009478425
0.007325044
0.005446629
0.004503109
0.003964539
0.00357141
0.00315803
0.002569127
0.001926489
0.001442577
0.001103857
0.0008687054
0.000705704
0.0005945108
0.000521717
0.0004768191
0.0004499362
0.0004340489
0.0004307248
0.0004596158
0.0005528861
0.0007542669
0.001125431
0.001755283
0.002689431
0.003327747
0.003752145
0.004093034
0.004472766
0.005257428
0.009154277
0.007294965
0.005405861
0.004468064
0.003943829
0.003574134
0.003195517
0.002666461
0.00200619
0.001501506
0.001144278
0.0008948791
0.0007220408
0.0006049656
0.0005296977
0.0004851224
0.0004606961
0.0004492477
0.000453041
0.0004914949
0.0005955124
0.0008068221
0.001184203
0.001810013
0.00271849
0.00331007
0.003695259
0.004005367
0.004361076
0.005106482
0.008682971
0.007249432
0.005354267
0.004436735
0.003941499
0.00360988
0.003284662
0.002818253
0.002146495
0.001601202
0.001208313
0.0009334727
0.0007441609
0.0006174969
0.000537829
0.0004926941
0.0004704531
0.000463626
0.0004753758
0.0005247962
0.0006425881
0.0008695729
0.001262153
0.001894314
0.00278236
0.00333059
0.003673845
0.003945326
0.004262999
0.004939671
0.008041706
0.007200393
0.005339864
0.004487562
0.004053506
0.003778541
0.003516089
0.00313496
0.002422945
0.001787285
0.001318809
0.0009947935
0.000776558
0.000634145
0.0005471335
0.0005000573
0.0004793738
0.0004770462
0.0004974651
0.0005598473
0.0006970824
0.0009533562
0.001388829
0.00207287
0.002989526
0.003515227
0.003820748
0.004050618
0.004321055
0.004906053
0.007439456
0.007246997
0.005588179
0.004912323
0.00459928
0.004410765
0.004218135
0.003875807
0.003123431
0.002167736
0.001506164
0.001085564
0.00082043
0.0006553308
0.0005580498
0.0005074929
0.0004872947
0.0004887697
0.0005181343
0.000595791
0.0007607283
0.001070858
0.001613775
0.002494782
0.003670716
0.004216979
0.004488644
0.004684594
0.004939992
0.005579302
0.00842735
0.007928827
0.006987176
0.006691878
0.006577571
0.006515487
0.006435071
0.006164454
0.004992541
0.002781572
0.001738019
0.001181189
0.0008632955
0.0006753551
0.0005669764
0.000510621
0.0004878507
0.0004903739
0.0005276882
0.0006223814
0.0008206503
0.001203813
0.001933461
0.00332831
0.005953883
0.006442073
0.006603335
0.006729773
0.006980497
0.008071207
0.01945235
0.007936282
0.006912622
0.006554739
0.006400441
0.006304741
0.006164467
0.005667117
0.003356511
0.002143813
0.001468212
0.001063298
0.0008099686
0.0006499926
0.0005522236
0.0004971729
0.0004706625
0.0004668632
0.0004957012
0.000578607
0.0007507097
0.001078806
0.001696975
0.002926563
0.005685771
0.006222035
0.006423492
0.00658539
0.006865727
0.007959751
0.02009773
0.007200429
0.005339878
0.004487419
0.004052758
0.003775765
0.003508071
0.003118759
0.002400482
0.001766937
0.001305869
0.0009879596
0.000773195
0.0006318128
0.0005436662
0.0004936922
0.0004693023
0.0004643517
0.000485652
0.0005518086
0.0006918222
0.0009506535
0.001389857
0.00207937
0.003002902
0.003525568
0.003827612
0.004055442
0.004324745
0.004909171
0.00744464
0.007133677
0.00501914
0.003923318
0.00331598
0.00292821
0.002612837
0.002287004
0.001875866
0.001480175
0.001156413
0.0009117195
0.0007350159
0.0006128082
0.0005333133
0.0004858155
0.0004601387
0.0004509784
0.0004636961
0.0005150077
0.0006273509
0.0008289306
0.001146079
0.001586336
0.002092226
0.002491859
0.002768498
0.002974909
0.003165586
0.003432034
0.004241538
0.00717778
0.005013373
0.003822717
0.003128047
0.002674297
0.002321548
0.00199364
0.001646437
0.00132789
0.00106444
0.0008596285
0.000707042
0.0005981748
0.0005247676
0.0004784268
0.0004505573
0.0004364919
0.0004405825
0.0004789414
0.0005712094
0.000738742
0.0009981575
0.001351193
0.001759154
0.002116604
0.002386615
0.002597545
0.002789492
0.003042974
0.003797263
0.007222148
0.005060815
0.003838896
0.00310468
0.002612992
0.00223095
0.001884735
0.001547785
0.001253075
0.00101369
0.0008278808
0.000688393
0.000587367
0.0005174448
0.0004711
0.0004405084
0.000421248
0.0004168565
0.0004439872
0.0005225435
0.0006722534
0.0009089439
0.001238644
0.001634839
0.002001901
0.002294296
0.002535307
0.002767511
0.003095571
0.004086321
0.007251653
0.005100694
0.003869204
0.003117164
0.002604078
0.002202297
0.001838781
0.00150014
0.001212764
0.0009835792
0.0008072262
0.0006749384
0.0005784189
0.0005103087
0.0004632695
0.0004297079
0.0004050817
0.0003922584
0.0004093842
0.0004784266
0.0006191435
0.0008484611
0.001177165
0.001586122
0.001981562
0.002306813
0.002581957
0.002852564
0.00324442
0.004456537
0.007268883
0.00512548
0.003890436
0.003128827
0.002601719
0.002185685
0.001805831
0.001464773
0.001182715
0.0009607962
0.0007909698
0.0006635506
0.0005699978
0.0005029119
0.0004549364
0.0004183464
0.0003881572
0.0003667714
0.0003748051
0.0004370666
0.0005731035
0.0008005584
0.00113391
0.001559161
0.001985141
0.00234224
0.002646267
0.002943974
0.003375858
0.004749546
0.007278063
0.005138686
0.003901425
0.003133461
0.002596035
0.002169837
0.001775391
0.001434262
0.001157596
0.0009417543
0.0007769991
0.0006532229
0.0005618455
0.000495473
0.0004465951
0.0004069643
0.000370822
0.0003405303
0.0003404134
0.0003979733
0.0005314165
0.0007582846
0.001095726
0.001533286
0.001986525
0.002371201
0.002698279
0.003014535
0.003470494
0.004955511
0.007282385
0.005144559
0.00390535
0.003132779
0.0025882
0.002156598
0.001755813
0.001413549
0.001139217
0.0009268165
0.0007653007
0.000644034
0.0005542754
0.000488535
0.0004389401
0.0003961845
0.0003533974
0.0003137531
0.0003067501
0.0003614449
0.0004933728
0.0007195252
0.001059411
0.001506411
0.001979463
0.002387131
0.002732863
0.003062594
0.003533626
0.005093567
0.007283959
0.005146244
0.003905166
0.003128983
0.002579439
0.002144695
0.001741117
0.001398216
0.00112515
0.0009148585
0.0007555002
0.0006360467
0.0005476038
0.0004825378
0.0004324382
0.000386348
0.0003360925
0.0002870193
0.0002748228
0.0003281553
0.0004590139
0.0006838766
0.001024442
0.001477474
0.001964771
0.00239147
0.002752604
0.00309276
0.003573725
0.005182785
0.007284126
0.005145817
0.003902939
0.003123653
0.002570733
0.002132881
0.001727669
0.001384928
0.00111326
0.0009048007
0.000747205
0.000629232
0.0005419109
0.0004774609
0.0004268868
0.0003773277
0.0003194926
0.0002620765
0.0002463568
0.0002989742
0.0004285727
0.000651477
0.0009915066
0.00144858
0.001945343
0.002387649
0.002761603
0.003110112
0.003597862
0.005237928
0.007283716
0.005144583
0.003899993
0.003117699
0.002561335
0.002119767
0.001713623
0.001372172
0.001102613
0.0008961932
0.0007402587
0.0006235332
0.0005370551
0.0004729286
0.0004217458
0.000369296
0.0003056827
0.0002422663
0.0002236475
0.0002748302
0.0004022306
0.0006221607
0.0009601676
0.001419223
0.001923127
0.002378772
0.002763573
0.003118876
0.003611341
0.005269921
0.007283202
0.005143304
0.003897209
0.003112016
0.002551852
0.002105361
0.00169927
0.00136038
0.001093554
0.0008892504
0.0007347721
0.0006189668
0.0005329738
0.0004689257
0.000417359
0.0003636538
0.0002975404
0.0002309307
0.0002088093
0.0002566779
0.0003802669
0.0005955212
0.0009288545
0.001387043
0.001898399
0.002366933
0.002761395
0.003122285
0.003618031
0.005286752
0.007282827
0.005142398
0.003895223
0.003107784
0.002544361
0.002093052
0.001687684
0.001351502
0.001087107
0.0008844646
0.00073097
0.0006156251
0.0005297166
0.0004656027
0.0004142083
0.0003613779
0.0002965905
0.0002299703
0.0002034528
0.0002457122
0.0003635791
0.0005719491
0.0008963321
0.00134823
0.001870617
0.002353735
0.002757281
0.003122704
0.003620669
0.005294155
0.007282695
0.005142064
0.003894448
0.003106055
0.002541146
0.00208718
0.001682624
0.001347767
0.001084368
0.0008823325
0.0007290832
0.0006136351
0.0005273319
0.000462808
0.000411729
0.0003615607
0.0003020467
0.0002391998
0.0002081684
0.0002431396
0.0003542254
0.0005556124
0.0008706512
0.001313576
0.001847627
0.002343007
0.0027533
0.003121755
0.003620987
0.00529591
0.007282845
0.005142369
0.003895026
0.003107313
0.002543654
0.002092183
0.001686565
0.00135021
0.001085779
0.0008830801
0.0007292918
0.0006132302
0.0005261163
0.000460677
0.0004092947
0.0003619873
0.0003099181
0.0002546684
0.0002213092
0.0002490731
0.0003537276
0.0005504825
0.0008615244
0.001302015
0.001838532
0.002338151
0.002750834
0.003120316
0.00361987
0.005294055
0.007283271
0.005143282
0.003896798
0.003110814
0.002549578
0.002101469
0.00169558
0.001357218
0.00109076
0.0008865139
0.0007315897
0.0006145963
0.0005265548
0.00046016
0.0004083701
0.0003632528
0.0003175352
0.0002704133
0.0002385633
0.0002618907
0.000361947
0.0005567236
0.0008677494
0.001307744
0.001842301
0.002339197
0.002750001
0.003118449
0.003617342
0.005288577
0.007283923
0.005144706
0.00389957
0.003116216
0.002558563
0.002115507
0.001709042
0.001367861
0.001098625
0.0008922522
0.0007358158
0.0006177471
0.000528899
0.0004619275
0.000410162
0.0003668131
0.0003256161
0.0002849596
0.0002568281
0.0002790971
0.0003776239
0.0005738193
0.0008893965
0.001332555
0.001858489
0.002345593
0.002750169
0.00311546
0.003612579
0.005277608
0.007284671
0.005146399
0.003902861
0.00312232
0.002567976
0.002128747
0.001722771
0.001379822
0.001108213
0.0008997285
0.0007416905
0.000622532
0.000533054
0.0004659203
0.0004146601
0.0003729655
0.000335053
0.0002991777
0.0002755786
0.0002994409
0.0003992442
0.0005994734
0.0009224811
0.00137092
0.001883503
0.002354986
0.002749714
0.003109903
0.003603955
0.005257569
0.007285249
0.005147911
0.003906064
0.003128277
0.002576808