/*--------------------------------*- C++ -*----------------------------------*\
| =========                 |                                                 |
| \\      /  F ield         | OpenFOAM: The Open Source CFD Toolbox           |
|  \\    /   O peration     | Version:  2506                                  |
|   \\  /    A nd           | Website:  www.openfoam.com                      |
|    \\/     M anipulation  |                                                 |
\*---------------------------------------------------------------------------*/
FoamFile
{
    version     2.0;
    format      ascii;
    arch        "LSB;label=32;scalar=64";
    class       surfaceScalarField;
    location    "350/airRegion";
    object      phi;
}
// * * * * * * * * * * * * * * * * * * * * * * * * * * * * * * * * * * * * * //

dimensions      [1 0 -1 0 0 0 0];

oriented        oriented;

internalField   nonuniform List<scalar> 
257196
(
0.01085321
0.0007321819
0.0007321338
0.01057529
0.001080529
0.001080399
0.0102501
0.00112659
0.001126393
0.01001001
0.001106749
0.001106677
0.01004948
0.001156187
0.001156617
0.01070073
0.001371342
0.001373567
0.01299582
0.001473244
0.001480846
0.02133737
-0.002079633
-0.002054857
0.03493181
-0.007334433
-0.007285755
0.04499807
-0.01152416
-0.01145414
0.05106187
-0.01761249
-0.01751899
0.05309622
-0.0255435
-0.02541645
0.05082518
-0.03515263
-0.03496802
0.04406435
-0.04595511
-0.04566701
0.03299325
-0.05680498
-0.05634893
0.0183943
-0.06574467
-0.06506805
0.00176913
-0.07005349
-0.06917174
-0.01376015
-0.06652363
-0.06556082
-0.02494874
-0.05527871
-0.05440533
-0.03007428
-0.04013884
-0.03943172
-0.02854702
-0.02526519
-0.02474067
-0.02074987
-0.01355423
-0.01339736
-0.01296928
-0.004090736
-0.003888636
-0.009549031
0.001210696
0.001411374
-0.008388247
0.002751751
0.002781474
-0.007930113
0.003710712
0.003720303
-0.00756998
0.004656413
0.004659232
-0.006801585
0.005591454
0.00559136
-0.004702355
0.005893075
0.005891942
0.0004487397
0.0004470555
0.01964434
0.0006509427
0.002270106
0.01947777
0.001060553
0.003347163
0.01924672
0.00116013
0.003425054
0.01916601
0.001140898
0.003104142
0.01958484
0.001124266
0.002535078
0.02124167
0.001154025
0.001398345
0.02570587
0.0005597314
-0.001480053
0.03388784
-0.003902554
-0.00557642
0.04290916
-0.009600152
-0.009144458
0.050313
-0.0139978
-0.01362233
0.05473621
-0.01917274
-0.02021563
0.05563533
-0.02568772
-0.02864379
0.05257219
-0.0335716
-0.03866151
0.04527592
-0.0424643
-0.04970324
0.03387523
-0.05144436
-0.06060488
0.01910555
-0.05886282
-0.0694579
0.002441143
-0.06237452
-0.07364778
-0.01325787
-0.05928733
-0.07004098
-0.02502797
-0.04970024
-0.05860278
-0.03126131
-0.03688974
-0.04303483
-0.03179857
-0.02422789
-0.02738362
-0.02791235
-0.01369267
-0.01459526
-0.02133177
-0.005230628
-0.005934335
-0.01692566
0.000171918
0.0008579992
-0.0147775
0.002107426
0.006530646
-0.01360407
0.003339525
0.01019636
-0.01246916
0.004353223
0.01338884
-0.01045469
0.005153658
0.01704765
-0.005489129
0.005134534
0.02190369
0.0002041973
0.0292244
0.02360441
0.0004971988
0.003610049
0.02359287
0.0008817429
0.005448911
0.02359622
0.001020001
0.005586853
0.02386644
0.001040904
0.004908656
0.02487975
0.001052507
0.003550138
0.02760104
0.001042772
0.0009473869
0.03413419
-0.0003857193
-0.00483911
0.04391633
-0.005019635
-0.008807085
0.05146029
-0.00996773
-0.01112996
0.0567823
-0.0143644
-0.01634919
0.05948808
-0.01909879
-0.02368784
0.05905719
-0.02471875
-0.03280522
0.0550065
-0.0313504
-0.04338798
0.04703681
-0.03876272
-0.05482886
0.0352274
-0.0462371
-0.06597089
0.02024005
-0.05240662
-0.07495726
0.003443575
-0.0552588
-0.0792196
-0.01251873
-0.05250312
-0.07561906
-0.02487329
-0.04416945
-0.06389214
-0.03207268
-0.03311206
-0.04771908
-0.03387361
-0.02213242
-0.03112059
-0.0309138
-0.01281547
-0.0172033
-0.02434478
-0.005426669
-0.007764358
-0.01945128
-0.0003166528
0.001356684
-0.01676685
0.001661757
0.01027393
-0.01494428
0.002915205
0.01663927
-0.01296908
0.003872058
0.02238286
-0.009812245
0.004510409
0.02900457
-0.003174066
0.004377367
0.03764205
0.0009854489
0.04980138
0.02547803
0.0003452733
0.004636484
0.02553001
0.0006561416
0.007166886
0.02571915
0.0008013062
0.007401173
0.02635837
0.0008588052
0.006386466
0.02801961
0.0009665984
0.004227084
0.03163403
0.001217708
0.0003740407
0.03953506
-0.00141614
-0.006885927
0.05024197
-0.006046294
-0.01145226
0.0576648
-0.009890908
-0.01383674
0.06210381
-0.0137791
-0.01954127
0.06377674
-0.01806271
-0.02749189
0.06237148
-0.02299042
-0.03719004
0.05751103
-0.02866377
-0.04824276
0.04894937
-0.03492198
-0.05999831
0.03676507
-0.04120113
-0.07131715
0.02156795
-0.04636737
-0.08040225
0.004633156
-0.04868349
-0.08472973
-0.01157582
-0.04616963
-0.08116247
-0.02437646
-0.03880477
-0.06921015
-0.03217304
-0.02915263
-0.05254949
-0.03455021
-0.01960697
-0.03510464
-0.03181976
-0.01151294
-0.0199995
-0.0250713
-0.005146937
-0.009108316
-0.01977735
-0.0005244203
0.002190631
-0.01668674
0.001310469
0.01380247
-0.01438367
0.002446434
0.02260991
-0.01188947
0.003267075
0.03069892
-0.008288074
0.003741533
0.03968158
-0.001309859
0.003550861
0.05047523
0.001089453
0.0635551
0.0263936
0.0002248195
0.005352219
0.02645265
0.0004515912
0.008430471
0.0267701
0.0005761647
0.008770235
0.02776032
0.0006347496
0.007475956
0.0304698
0.0006112501
0.004505772
0.03681085
0.000239617
-0.001308142
0.04626343
-0.001227271
-0.008703878
0.05534512
-0.00531312
-0.01249799
0.06212181
-0.009210426
-0.01636281
0.06609542
-0.01278698
-0.0228258
0.06717153
-0.01657644
-0.03133084
0.06513733
-0.02087044
-0.04149271
0.05971723
-0.02573341
-0.05287841
0.05073255
-0.03103885
-0.06482087
0.03827753
-0.03633531
-0.0762198
0.02292291
-0.0406735
-0.08534828
0.005871796
-0.04254152
-0.08972312
-0.01053406
-0.04021475
-0.08620875
-0.02362035
-0.03366475
-0.07411108
-0.03171701
-0.02524965
-0.05712391
-0.03430235
-0.01702573
-0.03901032
-0.03158323
-0.01011582
-0.02279488
-0.02468033
-0.004713348
-0.01034956
-0.01914267
-0.0006257954
0.002912756
-0.01577419
0.0009883703
0.01673759
-0.013183
0.00195412
0.02763018
-0.010469
0.002618267
0.03763511
-0.006839556
0.002957487
0.04826737
-1.405834e-05
0.002747485
0.06015845
0.000937259
0.07288706
0.02685227
0.0001399173
0.005816708
0.02689587
0.0002951407
0.009281966
0.02727769
0.0003963477
0.009702526
0.02845564
0.0004702758
0.008176407
0.03122333
0.0005435276
0.004655341
0.03683367
0.000423336
-0.00164013
0.04649144
-0.001849115
-0.01008323
0.05775329
-0.005831533
-0.01521011
0.06504451
-0.008807598
-0.0189874
0.06887379
-0.01170815
-0.02597393
0.06962445
-0.01492894
-0.03499755
0.06720618
-0.01859991
-0.04553894
0.0614391
-0.02273435
-0.05715258
0.0522028
-0.02721521
-0.06918087
0.03960196
-0.03167132
-0.08058275
0.02416851
-0.03530057
-0.08970731
0.007049104
-0.03678081
-0.09410388
-0.009484873
-0.03461304
-0.09063633
-0.02271401
-0.02880917
-0.07845217
-0.03090865
-0.0215581
-0.06129261
-0.03352232
-0.01459345
-0.04272136
-0.03076848
-0.008804769
-0.0255941
-0.02381274
-0.004274717
-0.01175758
-0.01818982
-0.0006917032
0.003209843
-0.0146608
0.0006838547
0.01883243
-0.01193022
0.001474573
0.03145163
-0.009177752
0.001995814
0.04296025
-0.005689436
0.002236871
0.05472851
0.0008461594
0.002047049
0.06719845
0.0007391807
0.07923065
0.0270924
8.313324e-05
0.006099627
0.0271318
0.0001820717
0.009811404
0.02758993
0.000254351
0.01027208
0.02901237
0.0003190092
0.008530339
0.0322798
0.0004605028
0.004413479
0.03868754
0.0006186215
-0.003004599
0.04920624
-0.002602422
-0.01126397
0.06045694
-0.006093624
-0.01645433
0.06742216
-0.008131629
-0.02105246
0.07091107
-0.01042679
-0.02876665
0.07134303
-0.01315578
-0.03833158
0.06863891
-0.01627157
-0.04922017
0.06265553
-0.01976207
-0.06100275
0.05329569
-0.02351986
-0.07305637
0.04065442
-0.02723948
-0.08441683
0.02521435
-0.0302433
-0.09350935
0.008072475
-0.03137925
-0.09789875
-0.008526719
-0.02936411
-0.09444234
-0.02178412
-0.02429109
-0.08220309
-0.02994428
-0.0181723
-0.06500927
-0.03250417
-0.01240968
-0.04619886
-0.02973608
-0.007653736
-0.02841121
-0.02282801
-0.003883236
-0.01344485
-0.01724155
-0.0007396175
0.002958107
-0.01363432
0.0004095956
0.02003612
-0.01085321
0.001042781
0.03407852
-0.008146867
0.00144671
0.04677374
-0.004848035
0.001622974
0.05936147
0.001403537
0.001471612
0.07217565
0.0005557567
0.08357155
0.02722175
4.660575e-05
0.006259617
0.02726669
0.0001031015
0.01010892
0.02780182
0.0001418932
0.01056838
0.02947201
0.000162206
0.008627913
0.03359979
0.0001460255
0.003909993
0.04226582
-0.000163611
-0.00542218
0.05434327
-0.002230903
-0.01264098
0.06329159
-0.0047693
-0.01634698
0.06920633
-0.006837357
-0.02279062
0.07227743
-0.008948044
-0.0313152
0.07242194
-0.01130535
-0.04134675
0.06951202
-0.01395049
-0.05252474
0.06340722
-0.01687529
-0.06442495
0.05401584
-0.01999133
-0.07646659
0.04140949
-0.02305088
-0.08776728
0.02601123
-0.0254875
-0.09681678
0.008872607
-0.0263141
-0.1011676
-0.007745617
-0.02446907
-0.09766417
-0.02094274
-0.02014796
-0.08538367
-0.0289811
-0.01514162
-0.0682755
-0.03145261
-0.0105091
-0.04942671
-0.02870351
-0.006677181
-0.03122734
-0.0219085
-0.003549392
-0.01540527
-0.0164428
-0.0007689471
0.002196549
-0.01280069
0.0001799662
0.02044651
-0.01000982
0.00068135
0.03567421
-0.007374625
0.0009939761
0.0493272
-0.004255668
0.001129509
0.06254464
0.001741961
0.001027237
0.07560657
0.000393977
0.08651323
0.02729042
2.492492e-05
0.006340396
0.02733788
5.499846e-05
0.01025018
0.02790977
7.262922e-05
0.01067663
0.02968211
6.678472e-05
0.008563412
0.03396682
-1.239432e-05
0.003477349
0.04269695
-0.0004385571
-0.006527623
0.05508011
-0.00208071
-0.0139447
0.06417958
-0.00393226
-0.01784134
0.07000912
-0.005699143
-0.02480426
0.07293314
-0.007519228
-0.03374599
0.07293508
-0.009508324
-0.04410131
0.06991718
-0.01171018
-0.05547529
0.06376811
-0.01411358
-0.06743724
0.05440715
-0.01664127
-0.07944301
0.04188061
-0.01909165
-0.0906842
0.02654661
-0.0209995
-0.09969174
0.009417865
-0.02155167
-0.1039722
-0.007185926
-0.01992363
-0.1003591
-0.02025564
-0.01640043
-0.08805145
-0.02811921
-0.01247901
-0.07112996
-0.03049339
-0.00888334
-0.05240205
-0.02779071
-0.005856701
-0.03399495
-0.02113034
-0.003272142
-0.0175569
-0.01584318
-0.000814146
0.001101716
-0.01217695
6.150796e-07
0.02024022
-0.009387391
0.0003995492
0.03646679
-0.006818043
0.0006421139
0.0509091
-0.003844129
0.0007505634
0.06463436
0.001972379
0.000690294
0.07789761
0.0002666474
0.08847673
0.02732896
1.398708e-05
0.006373816
0.02738034
3.241261e-05
0.01029619
0.02797286
4.670847e-05
0.01067053
0.02978738
4.740788e-05
0.008405033
0.03410928
-2.152489e-05
0.003043945
0.04281192
-0.0004878746
-0.007388465
0.05524767
-0.001921124
-0.01518197
0.06447177
-0.003357646
-0.01939672
0.0703101
-0.004752691
-0.02669973
0.07317015
-0.006211091
-0.03594716
0.07308997
-0.007808822
-0.04653398
0.0700102
-0.009570187
-0.05804106
0.063851
-0.01147485
-0.07003342
0.05454443
-0.01344877
-0.08199986
0.04211193
-0.01532388
-0.09319598
0.02684728
-0.01673311
-0.1021675
0.009731398
-0.01705609
-0.106352
-0.006828298
-0.01572077
-0.1025953
-0.01972921
-0.01304592
-0.09030119
-0.02740332
-0.01015837
-0.07364578
-0.02969482
-0.007488107
-0.05513588
-0.02706124
-0.005151431
-0.03665178
-0.02056193
-0.003028982
-0.01976479
-0.015416
-0.0008628929
-0.0003206685
-0.01173811
-0.0001207599
0.01962718
-0.008949005
0.0001989894
0.03669029
-0.006429467
0.0003852592
0.05178818
-0.003563406
0.0004726623
0.06593296
0.002124968
0.0004431324
0.07937226
0.0001716648
0.08975109
0.02735701
9.913811e-06
0.006382152
0.02742055
2.713534e-05
0.01029218
0.0280421
5.28532e-05
0.01060633
0.02990322
8.866337e-05
0.008200537
0.03427102
8.441714e-05
0.002616334
0.04299682
-0.0004358957
-0.008139453
0.05546208
-0.00178014
-0.01621404
0.06469046
-0.002891892
-0.02070046
0.07047881
-0.003905263
-0.02828619
0.07325493
-0.004978383
-0.03778225
0.07308714
-0.006174907
-0.04855423
0.06994512
-0.007500476
-0.06016661
0.06377337
-0.00892416
-0.0721835
0.05451504
-0.01037151
-0.08412188
0.04217171
-0.01170179
-0.09528596
0.02698091
-0.01264833
-0.1042203
0.009896792
-0.01280284
-0.1083056
-0.006590805
-0.01184475
-0.1044463
-0.01932193
-0.0100438
-0.09225289
-0.02684126
-0.008109215
-0.07591275
-0.02909099
-0.006248647
-0.05764225
-0.0265453
-0.004509047
-0.03912745
-0.02024442
-0.002780278
-0.02188149
-0.01512642
-0.0008241603
-0.002074834
-0.01145207
-0.0001671231
0.01880695
-0.008656293
7.75902e-05
0.03655565
-0.006168287
0.0002129778
0.05219276
-0.003376979
0.0002796858
0.06668302
0.002223257
0.0002689991
0.08027707
0.0001040932
0.09054454
0.02738692
8.773335e-06
0.006380097
0.0274774
2.84857e-05
0.01026957
0.02815883
6.975742e-05
0.01052446
0.03012215
0.0001538739
0.007978065
0.03461852
0.0002623673
0.002205417
0.04346651
-0.0003501171
-0.008735713
0.0559501
-0.001640325
-0.01694979
0.06507099
-0.002401495
-0.02162503
0.07071644
-0.003034955
-0.02945307
0.07335173
-0.003735884
-0.03916384
0.07306507
-0.004548585
-0.0500944
0.06984169
-0.005457671
-0.06179819
0.06364033
-0.006424179
-0.07384018
0.05441192
-0.007375741
-0.08575547
0.0421465
-0.008199289
-0.09687986
0.02704242
-0.008731681
-0.1057669
0.01002742
-0.008779528
-0.1098019
-0.006373301
-0.008255883
-0.1059813
-0.01898585
-0.007309178
-0.09401271
-0.02643587
-0.006223877
-0.07799639
-0.02870905
-0.005069276
-0.05991256
-0.02626119
-0.003875099
-0.04133718
-0.02008462
-0.002540919
-0.02378227
-0.01498306
-0.0007644851
-0.003610326
-0.01129389
-0.0001233677
0.01794047
-0.008480122
3.240191e-05
0.03624016
-0.006004336
0.0001118766
0.05230666
-0.003259167
0.0001545237
0.06707222
0.002283581
0.0001520671
0.08079649
5.844763e-05
0.09101027
0.02742099
6.981861e-06
0.006375619
0.02755392
2.475275e-05
0.01024611
0.02834018
6.688166e-05
0.01044745
0.03051773
0.0001706072
0.007745196
0.03536009
0.0003615004
0.001784677
0.04445893
-0.0002609744
-0.009132794
0.05679659
-0.001328749
-0.01728669
0.06564059
-0.001717891
-0.02212901
0.07104587
-0.002029913
-0.03018864
0.07349768
-0.002420378
-0.04008433
0.07307599
-0.002893683
-0.05113929
0.06976478
-0.003421823
-0.06291004
0.06352617
-0.003964265
-0.07496484
0.05431586
-0.004455335
-0.08684933
0.0421215
-0.004812968
-0.09792008
0.02712125
-0.004977298
-0.1067608
0.01021283
-0.004962397
-0.1108235
-0.006113224
-0.004885636
-0.1072266
-0.0187045
-0.004731965
-0.09561167
-0.0262127
-0.004378628
-0.07989244
-0.02861233
-0.003829682
-0.06188906
-0.02631433
-0.003149516
-0.04315595
-0.0202016
-0.002282552
-0.02528299
-0.01504187
-0.000693615
-0.004805844
-0.01127244
9.425093e-06
0.01714614
-0.008407326
4.668877e-05
0.03586977
-0.005918074
6.267015e-05
0.05226742
-0.00319271
7.797236e-05
0.06724133
0.002317276
7.653643e-05
0.08106737
2.907823e-05
0.09126157
0.02745073
3.186458e-06
0.006372381
0.0276256
1.157499e-05
0.01023029
0.02852433
3.204899e-05
0.01039233
0.03096773
0.0001010358
0.00754601
0.03626223
0.0002719569
0.001407951
0.04566335
-0.0001536926
-0.009345782
0.05770826
-0.0007368047
-0.01725345
0.06618861
-0.0007757802
-0.02231196
0.07134918
-0.0008751726
-0.03056815
0.07363865
-0.001032415
-0.04059055
0.07310607
-0.00121644
-0.05171788
0.06972708
-0.001404558
-0.06351786
0.06346236
-0.001561017
-0.07556027
0.05427275
-0.001629388
-0.0873945
0.04215346
-0.001557987
-0.09839214
0.02728187
-0.00138577
-0.1071901
0.01051976
-0.001319132
-0.1113612
-0.005758039
-0.001646568
-0.1081716
-0.01845244
-0.002190856
-0.0970268
-0.02617578
-0.002448593
-0.08155814
-0.02885938
-0.002383941
-0.06349959
-0.02689659
-0.002119599
-0.04444617
-0.02103421
-0.001704907
-0.02611804
-0.01562958
-0.0005684848
-0.005525509
-0.01148017
0.0001111046
0.01640396
-0.008452007
5.612292e-05
0.03551192
-0.00589995
2.882884e-05
0.05217026
-0.003166341
2.731574e-05
0.06728966
0.002332023
2.618912e-05
0.08118612
9.811764e-06
0.0913788
0.02746341
-1.616118e-06
0.006371378
0.02765872
-7.236412e-06
0.01022429
0.02862083
-2.470724e-05
0.01036908
0.03130871
-8.714115e-05
0.007437156
0.03722969
-0.0002492413
0.001084594
0.04688439
4.893308e-05
-0.009455363
0.05828469
0.0004426738
-0.01694196
0.06645264
0.0003806736
-0.02231628
0.07147749
0.0003460997
-0.03068851
0.0736901
0.0003720917
-0.04074843
0.07310912
0.0004437431
-0.05188513
0.06970176
0.0005643789
-0.06367209
0.0634314
0.0007595718
-0.07567549
0.05427198
0.001074803
-0.08743663
0.04224553
0.0015332
-0.09833029
0.02755605
0.002011597
-0.1070703
0.01101819
0.002150114
-0.1114104
-0.005209859
0.001532107
-0.1087882
-0.01811324
0.0004202636
-0.09822033
-0.02616527
-0.0003641016
-0.08298093
-0.02919891
-0.0007070848
-0.0648002
-0.02763044
-0.0007686363
-0.0453671
-0.02214337
-0.0007725587
-0.02646775
-0.01638474
-0.0004512972
-0.00593072
-0.01176544
0.0001753671
0.0157611
-0.008539589
3.678425e-05
0.03523751
-0.005916257
-7.98003e-06
0.0520721
-0.003163503
-1.380622e-05
0.06727598
0.002335154
-1.260499e-05
0.081213
-4.645502e-06
0.09141227
0.0274541
-4.979566e-06
0.006373248
0.02763051
-1.882917e-05
0.0102302
0.02852902
-5.28578e-05
0.01038728
0.03096483
-0.0001338895
0.007532433
0.03621145
-0.0002648072
0.001389112
0.04559999
0.000176544
-0.00941783
0.05769143
0.0009593247
-0.0173269
0.06619134
0.001263688
-0.02237026
0.07134487
0.001458528
-0.03060381
0.07361259
0.001710181
-0.04059868
0.0730558
0.00204302
-0.05168905
0.069659
0.002461597
-0.06343189
0.06339738
0.002987401
-0.07538287
0.05426709
0.003652941
-0.08706081
0.04233566
0.004451399
-0.09782212
0.02786067
0.005197348
-0.1064681
0.01161826
0.005437656
-0.1109861
-0.004504487
0.004679254
-0.109007
-0.01763395
0.00315194
-0.09910534
-0.02604646
0.001881047
-0.08410597
-0.02938809
0.001118382
-0.06581124
-0.02814993
0.0007638393
-0.04605231
-0.0233939
0.0006356415
-0.02653451
-0.01729677
0.0004212011
-0.006286188
-0.01200419
-9.814818e-05
0.01527573
-0.008596495
-4.472442e-05
0.03510035
-0.005940062
-4.657725e-05
0.05200341
-0.003172944
-5.603226e-05
0.06722875
0.002331472
-5.165158e-05
0.08117783
-1.918503e-05
0.09138752
0.02743086
-6.876962e-06
0.006378216
0.02757556
-2.484566e-05
0.01024771
0.02839928
-6.783831e-05
0.01043522
0.0306899
-0.000167127
0.007678223
0.03578599
-0.0003354886
0.00162803
0.04497108
0.000298538
-0.009224243
0.05706522
0.001476768
-0.01724727
0.0657501
0.002017894
-0.02218557
0.07105774
0.002451201
-0.03027898
0.07343584
0.002952861
-0.04016167
0.07295158
0.003562892
-0.05116549
0.06959341
0.004287351
-0.06284562
0.06334543
0.005142856
-0.07474829
0.05422602
0.006145075
-0.08635913
0.04235153
0.007254063
-0.09699838
0.02804427
0.00824
-0.1055367
0.01207228
0.008605474
-0.1101868
-0.003901504
0.007819712
-0.108763
-0.01718277
0.006001034
-0.09949985
-0.02588964
0.004255822
-0.08475327
-0.02944019
0.003007883
-0.066381
-0.02810533
0.00219166
-0.04643201
-0.02256745
0.001406189
-0.02701772
-0.01660597
0.0003857873
-0.006193599
-0.01193019
0.0001377148
0.01557409
-0.008637094
-4.731472e-05
0.03512926
-0.005972897
-9.63475e-05
0.05196
-0.003195024
-0.0001114371
0.06714866
0.002320768
-0.0001030462
0.08108073
-3.884669e-05
0.09130435
0.02739827
-6.91664e-06
0.00638593
0.02749682
-2.175143e-05
0.01027625
0.02820057
-5.080929e-05
0.01051481
0.03020847
-0.0001032159
0.00791592
0.03475858
-0.0001424496
0.002067064
0.04364716
0.0003759647
-0.008901795
0.05608485
0.00160682
-0.0171274
0.06511099
0.002500544
-0.02184863
0.07066247
0.003269506
-0.0297135
0.07320516
0.004084832
-0.03942388
0.07282675
0.005010391
-0.05031109
0.06952172
0.00606796
-0.06192211
0.06328109
0.007272674
-0.07379285
0.0541413
0.008623451
-0.0853772
0.04226216
0.01004528
-0.09595313
0.02803045
0.01127048
-0.1044223
0.01223601
0.01177578
-0.1091522
-0.003591701
0.01100765
-0.1081026
-0.01692776
0.00894975
-0.09933529
-0.02580344
0.006706183
-0.08481007
-0.02945397
0.004882492
-0.06641952
-0.02822955
0.003607278
-0.04634726
-0.02337554
0.00260482
-0.02657756
-0.01724694
0.001030239
-0.006062788
-0.01204198
-0.0001519554
0.01561306
-0.008674574
-0.0001433898
0.03523429
-0.006022804
-0.0001695253
0.05192162
-0.00323404
-0.0001933045
0.06700722
0.00230058
-0.0001786032
0.08089264
-6.817637e-05
0.09113757
0.02736855
-7.684481e-06
0.006394659
0.02743295
-1.916695e-05
0.01031116
0.02806039
-3.209264e-05
0.01060813
0.0299325
-4.102935e-05
0.008146447
0.03430356
3.864366e-06
0.002468802
0.04301699
0.0004440384
-0.008403417
0.05544736
0.001721029
-0.01657511
0.06461479
0.002906445
-0.0211534
0.07032506
0.004013349
-0.02881161
0.07300402
0.005165079
-0.03834103
0.07272239
0.006434306
-0.04909928
0.06946389
0.007853916
-0.06064359
0.0632141
0.009438616
-0.07250571
0.05401759
0.01116916
-0.08411048
0.04206687
0.01293385
-0.09469097
0.02780792
0.01442234
-0.1031443
0.01207305
0.01507962
-0.1079176
-0.0036544
0.01432043
-0.1070617
-0.0169755
0.01200305
-0.09859786
-0.02588692
0.009195119
-0.08421171
-0.02946664
0.00667113
-0.06582189
-0.02785148
0.004739794
-0.04580098
-0.02207232
0.003174551
-0.02647961
-0.01627759
0.0009794536
-0.005466152
-0.01186415
-7.956906e-05
0.01642921
-0.0087174
-0.0001998089
0.03545196
-0.006103417
-0.0002714106
0.05183507
-0.003300845
-0.0003140649
0.06674991
0.002264823
-0.0002907185
0.08055685
-0.0001118816
0.09083873
0.0273453
-1.258215e-05
0.006400406
0.02739163
-2.766495e-05
0.01034327
0.02798193
-3.550947e-05
0.01070327
0.02979722
-2.598508e-05
0.008371131
0.0341102
4.906988e-05
0.002883063
0.04277451
0.000443431
-0.007738106
0.05516288
0.001871671
-0.01571375
0.06434038
0.003394911
-0.02009391
0.07011015
0.004821782
-0.02753396
0.07286783
0.006293407
-0.03687434
0.07265094
0.007910779
-0.04750087
0.06941735
0.009712694
-0.05898633
0.06313557
0.0117094
-0.07086328
0.05384638
0.01386217
-0.08253152
0.04176443
0.01601738
-0.09317704
0.02738705
0.01780997
-0.1016632
0.01159878
0.01863242
-0.1064554
-0.004100119
0.01784648
-0.1056391
-0.0173894
0.01520693
-0.0972757
-0.02626774
0.01175093
-0.08289781
-0.02970642
0.008409006
-0.06447306
-0.02771173
0.005668938
-0.04455132
-0.02132738
0.003390785
-0.02568585
-0.01573264
0.0009523981
-0.004592349
-0.01179222
2.969238e-05
0.01731956
-0.008829906
-0.0002549187
0.03566302
-0.006250647
-0.0004173064
0.0516251
-0.003415139
-0.0004922259
0.06629138
0.002203826
-0.0004552744
0.07998639
-0.0001757149
0.09033528
0.02732059
-2.47609e-05
0.006393773
0.02735816
-5.476187e-05
0.01035165
0.02792613
-7.339455e-05
0.01077291
0.0297047
-7.539453e-05
0.008577623
0.03399213
-3.556982e-05
0.003317305
0.0426718
0.0002794619
-0.00695233
0.05503178
0.00202763
-0.01463423
0.06413891
0.004092818
-0.01876392
0.06990782
0.005807555
-0.025938
0.07271021
0.007549519
-0.03505615
0.07254123
0.00950074
-0.04552954
0.06932316
0.01169853
-0.0569476
0.06299785
0.0141418
-0.0688479
0.05359366
0.01676792
-0.08060768
0.04133923
0.01937332
-0.09136126
0.02677686
0.02152156
-0.09991561
0.01084655
0.02252616
-0.1047078
-0.004893858
0.02166828
-0.1038067
-0.01816545
0.01862726
-0.09536295
-0.02699739
0.01444142
-0.0808585
-0.03033228
0.01020825
-0.0623434
-0.02815733
0.006628017
-0.04251429
-0.02160306
0.003708271
-0.02400437
-0.01598872
0.000978223
-0.003298336
-0.01205641
4.440145e-06
0.0180279
-0.009109211
-0.0004072194
0.03571829
-0.006507327
-0.0006474658
0.0511646
-0.003600982
-0.0007532407
0.0655024
0.002104722
-0.0006911483
0.07905267
-0.0002663434
0.08952079
0.02728189
-4.719443e-05
0.006360031
0.02731353
-0.0001054771
0.01030503
0.02785353
-0.0001487882
0.0107773
0.0295666
-0.0001863817
0.008734534
0.03375669
-0.0002379434
0.003773549
0.04237505
-0.0001057802
-0.005985052
0.05456602
0.002218757
-0.01344013
0.06360664
0.005039174
-0.01738905
0.06945624
0.006940307
-0.02416688
0.07234704
0.008923911
-0.03296801
0.07225334
0.01121166
-0.04322836
0.06907246
0.01382866
-0.05454119
0.06271714
0.01676365
-0.06644862
0.05320029
0.01992593
-0.07830611
0.0407598
0.02305242
-0.0891897
0.02597878
0.02561623
-0.09783167
0.009852512
0.02682469
-0.102606
-0.005975854
0.02584823
-0.1015227
-0.01923995
0.02232039
-0.0928576
-0.02800992
0.01732052
-0.07812606
-0.03123573
0.01212932
-0.05951165
-0.02889664
0.007667922
-0.03986467
-0.02212441
0.004090618
-0.0218735
-0.01644757
0.0009871075
-0.001734182
-0.01249868
-0.000125048
0.0186189
-0.009547518
-0.0006575376
0.03548775
-0.00689631
-0.0009779179
0.05028079
-0.003882704
-0.001117106
0.06420017
0.001951452
-0.001017546
0.07757486
-0.0003895817
0.08824432
0.0272112
-8.366117e-05
0.006277411
0.02723512
-0.0001829296
0.01015877
0.02771835
-0.0002531624
0.01066017
0.02925107
-0.0003049252
0.008794714
0.03294494
-0.0003199004
0.004299242
0.04056763
-7.186078e-05
-0.004301266
0.05199783
0.001947939
-0.01220986
0.06188146
0.005077756
-0.01678099
0.06831301
0.007724212
-0.02254323
0.07150854
0.01022479
-0.03073973
0.071601
0.01295971
-0.04064888
0.06852497
0.01606825
-0.0517802
0.06218766
0.01956591
-0.06365312
0.05259247
0.02334454
-0.07559194
0.03998613
0.02707635
-0.08660726
0.02498915
0.03012512
-0.09534046
0.008651331
0.03156489
-0.1000778
-0.007279364
0.03042469
-0.09873846
-0.02053057
0.02632464
-0.08975663
-0.0292197
0.02042551
-0.07474708
-0.0323242
0.01420643
-0.05607928
-0.02981456
0.008801656
-0.03676545
-0.02279533
0.004499103
-0.01952367
-0.01706411
0.0009430469
-0.0001911753
-0.01311924
-0.0003313755
0.01891715
-0.01016925
-0.0009982994
0.03476371
-0.007453575
-0.001415134
0.04874368
-0.004295311
-0.001599066
0.06214095
0.001721046
-0.001453751
0.07530556
-0.0005481372
0.0862973
0.02708313
-0.0001405666
0.006114677
0.02710701
-0.0002964369
0.009853763
0.02753587
-0.0003974112
0.01035006
0.0289153
-0.0004658491
0.008670901
0.03245293
-0.0005772193
0.00461617
0.04016803
-0.0006968595
-0.003407045
0.05117563
0.002162159
-0.01110993
0.06034451
0.005908976
-0.01516819
0.06676281
0.00860279
-0.02061554
0.07016128
0.01146632
-0.02830782
0.07046454
0.01469913
-0.03778505
0.06755663
0.01836905
-0.04865429
0.06130721
0.02251316
-0.06043715
0.05169903
0.02700374
-0.07242514
0.03898173
0.03143891
-0.08355597
0.02380848
0.03505306
-0.09237052
0.007281974
0.03675919
-0.09705101
-0.008731532
0.03541301
-0.09540379
-0.02194212
0.03065642
-0.08605759
-0.030524
0.02377273
-0.07077435
-0.03350231
0.0164567
-0.05215518
-0.03084706
0.0100414
-0.03337372
-0.0236526
0.004940342
-0.01713708
-0.01784064
0.0008832814
0.0009241102
-0.01393919
-0.0005934319
0.01869875
-0.01100752
-0.00141781
0.03329517
-0.008224876
-0.001954729
0.04627424
-0.004888018
-0.002205801
0.05901561
0.001383693
-0.002024765
0.0719168
-0.000729095
0.08338692
0.02684507
-0.0002258204
0.00582826
0.02687792
-0.0004543774
0.009314902
0.02724006
-0.0005815179
0.009763175
0.02839353
-0.0006451367
0.008279874
0.03112845
-0.0006435063
0.00483365
0.03657383
-0.000320372
-0.001394043
0.04624199
0.001165832
-0.009662962
0.05732727
0.005189662
-0.01483685
0.06446953
0.009023848
-0.0186565
0.0681531
0.01259432
-0.02557457
0.06872501
0.01638066
-0.03457504
0.06606121
0.0206728
-0.0451318
0.05999327
0.02554669
-0.05677412
0.05046883
0.03085653
-0.06876792
0.03772877
0.03611051
-0.07998155
0.02245216
0.04038636
-0.08885412
0.005793928
0.0424042
-0.09345705
-0.01024947
0.04081063
-0.09147399
-0.02336234
0.03530713
-0.08176255
-0.03178868
0.02734718
-0.0662665
-0.03462929
0.01886539
-0.04784939
-0.03187112
0.01137718
-0.02983551
-0.0246015
0.005407536
-0.01488181
-0.01873397
0.0008350485
0.001481245
-0.01494261
-0.0008892693
0.01775304
-0.01207552
-0.001891991
0.03083202
-0.009253086
-0.002573767
0.04256902
-0.005729182
-0.002924115
0.05445778
0.0008241658
-0.002723309
0.06699594
-0.0009276468
0.07908634
0.02638654
-0.0003463376
0.005359788
0.0264358
-0.0006594193
0.008452441
0.02673318
-0.0008082097
0.008810682
0.02768743
-0.0008745602
0.00754596
0.03032937
-0.001005274
0.004634152
0.03656206
-0.001318118
-0.00109191
0.04590069
0.001282995
-0.008446176
0.05486649
0.005914823
-0.01226894
0.06152352
0.009757902
-0.01610563
0.06534733
0.01366115
-0.02253556
0.06622774
0.01793737
-0.03103889
0.06392984
0.02286652
-0.04123647
0.05818785
0.02855722
-0.05267184
0.04888608
0.03482082
-0.06460384
0.03624383
0.04104213
-0.0758443
0.02096239
0.04610394
-0.08473661
0.004253171
0.04849426
-0.08924124
-0.0117407
0.04660704
-0.08691945
-0.02466432
0.0402432
-0.07688824
-0.03284354
0.0310867
-0.06129121
-0.0354958
0.02135702
-0.04326535
-0.032668
0.01274194
-0.02625738
-0.02541948
0.005834841
-0.01285197
-0.01963484
0.0007374978
0.001582277
-0.01603127
-0.001211646
0.01593498
-0.01331791
-0.002386646
0.02718568
-0.01054038
-0.003225306
0.03735884
-0.006877478
-0.003710687
0.04807644
-3.366402e-05
-0.00352917
0.06001577
-0.00108099
0.07278599
0.02547013
-0.000497734
0.004640286
0.02551076
-0.0008830667
0.007178308
0.02567308
-0.00102178
0.007422127
0.02624884
-0.001040795
0.006427914
0.02777116
-0.001045512
0.004332785
0.03112623
-0.001017721
0.000546751
0.03881821
0.0002761032
-0.006709186
0.04951523
0.004743583
-0.01136672
0.05690536
0.009780846
-0.01375087
0.06124642
0.01427695
-0.01941241
0.06275046
0.01903401
-0.02734659
0.06109219
0.02467931
-0.03708151
0.05590477
0.03135244
-0.04819519
0.0470082
0.03878151
-0.05995867
0.03460332
0.04618518
-0.07114238
0.01942083
0.05220629
-0.08000143
0.002743056
0.05505539
-0.08438909
-0.01311324
0.05281417
-0.08175226
-0.02572253
0.04541709
-0.07148706
-0.03349417
0.03486581
-0.05594139
-0.03581494
0.02375211
-0.03850609
-0.03288758
0.01396327
-0.02269339
-0.02576022
0.006062914
-0.01099569
-0.0202251
0.0005040622
0.001269219
-0.01692035
-0.001577321
0.01326218
-0.01450756
-0.002866627
0.02232834
-0.01195569
-0.003839032
0.0305276
-0.008323477
-0.004486009
0.03956295
-0.001330423
-0.004359368
0.05038764
-0.0009810005
0.06349414
0.02359776
-0.0006508948
0.003611169
0.02357787
-0.001060128
0.005452879
0.02356198
-0.001158048
0.005594077
0.02379203
-0.001133418
0.004924878
0.02472625
-0.001102986
0.003602071
0.02732783
-0.001113657
0.001059741
0.03366684
-0.0006212147
-0.004660423
0.04324525
0.003599258
-0.008744031
0.05068677
0.009367228
-0.01113841
0.05585195
0.01402333
-0.01635337
0.05839194
0.01918894
-0.02367403
0.05771511
0.02574428
-0.03282855
0.05333415
0.03370585
-0.04348369
0.04501539
0.04263461
-0.05495227
0.03296288
0.05152695
-0.06598372