/*--------------------------------*- C++ -*----------------------------------*\
| =========                 |                                                 |
| \\      /  F ield         | OpenFOAM: The Open Source CFD Toolbox           |
|  \\    /   O peration     | Version:  2506                                  |
|   \\  /    A nd           | Website:  www.openfoam.com                      |
|    \\/     M anipulation  |                                                 |
\*---------------------------------------------------------------------------*/
FoamFile
{
    version     2.0;
    format      ascii;
    arch        "LSB;label=32;scalar=64";
    class       volScalarField;
    location    "500/airRegion";
    object      alphat;
}
// * * * * * * * * * * * * * * * * * * * * * * * * * * * * * * * * * * * * * //

dimensions      [1 -1 -1 0 0 0 0];

internalField   nonuniform List<scalar> 
85779
(
0.1066848
0.1071219
0.1068978
0.1066392
0.1063588
0.1058533
0.1044439
0.0997034
0.0861171
0.07992576
0.07751178
0.07780541
0.08046756
0.08522645
0.09117123
0.09635344
0.09800643
0.09313409
0.08402355
0.07645559
0.07410801
0.07842572
0.09261014
0.1025433
0.1051031
0.1056333
0.105205
0.1022617
0.08605952
0.02337745
0.1068067
0.1073914
0.1069687
0.1063728
0.1056804
0.1045346
0.1018505
0.09512897
0.08592558
0.08138189
0.07935761
0.07948977
0.08176437
0.08604284
0.09150005
0.09631334
0.09787289
0.09328315
0.08444067
0.077092
0.07489668
0.07843416
0.08713789
0.09847625
0.1025055
0.1033805
0.1025167
0.09806288
0.07988108
0.0219603
0.106602
0.1068776
0.1062049
0.105363
0.1043961
0.1028152
0.09907662
0.09116106
0.08586268
0.08261727
0.08104468
0.081154
0.08308123
0.0867671
0.09150225
0.09568418
0.09698237
0.09266551
0.08404537
0.07662556
0.07397086
0.07641729
0.08334096
0.09570646
0.1001359
0.1011149
0.1003013
0.09619151
0.07961116
0.02220045
0.1065501
0.1066064
0.1057349
0.1047123
0.1035393
0.1015847
0.09702451
0.08854988
0.08469456
0.0825701
0.08164862
0.08199543
0.08379307
0.08701715
0.09105727
0.09454313
0.09547457
0.091326
0.08277308
0.07507198
0.07188314
0.07371673
0.0804241
0.09416753
0.09877733
0.09985202
0.0992661
0.09577409
0.08054262
0.02239761
0.1065694
0.1065281
0.1055393
0.1043933
0.103034
0.1005137
0.09426368
0.0872113
0.08368787
0.08204221
0.08155457
0.08214055
0.08389991
0.08676386
0.09016288
0.09292562
0.09340127
0.08932822
0.08079553
0.07286776
0.06944662
0.07127146
0.0784443
0.09335146
0.09812461
0.0993157
0.09895507
0.09592915
0.0814899
0.02253603
0.1066013
0.1065227
0.1054704
0.104244
0.1027514
0.09998085
0.09348617
0.08561585
0.08261312
0.08138923
0.08121217
0.08195582
0.08365085
0.08615977
0.08890926
0.09088907
0.09081101
0.08675043
0.0782992
0.07034837
0.06705626
0.0692605
0.07708281
0.09289036
0.09783186
0.09914022
0.09894944
0.09619089
0.0819565
0.02263416
0.1066266
0.1065332
0.1054434
0.104154
0.1025019
0.09907284
0.09089158
0.08529625
0.08243696
0.08124415
0.08109029
0.08179198
0.0832984
0.08537629
0.08740523
0.0885026
0.0877613
0.08366978
0.07541699
0.06768447
0.06481463
0.06759267
0.07606617
0.09259121
0.09769753
0.09911152
0.09904217
0.09644407
0.08228672
0.02270141
0.1066423
0.1065412
0.1054266
0.104088
0.1023109
0.09848706
0.08969303
0.08509262
0.08261706
0.08142521
0.08115792
0.0816935
0.08292394
0.0845037
0.0857332
0.08584145
0.08433422
0.08018264
0.07225511
0.06496124
0.06272146
0.06615478
0.07523132
0.0923615
0.09762303
0.09912826
0.09914596
0.0966482
0.08252326
0.02274722
0.1066502
0.1065434
0.105412
0.104041
0.1021896
0.09816117
0.08886224
0.08454325
0.08236185
0.0813046
0.08105248
0.08150132
0.08249369
0.0835773
0.08396837
0.08301563
0.08067644
0.07645158
0.06894956
0.06225708
0.06077153
0.06487555
0.07449593
0.09215826
0.09756464
0.09914859
0.09923048
0.09679807
0.08268744
0.02277813
0.106653
0.106541
0.1053975
0.1040043
0.1021082
0.09797949
0.08838981
0.08407118
0.08200138
0.08104513
0.08084131
0.0812514
0.08204883
0.0826671
0.08223336
0.0802225
0.07705413
0.07275602
0.06571617
0.05969091
0.05898855
0.06372829
0.07382929
0.09196541
0.09750605
0.09915856
0.09928952
0.0969014
0.08279763
0.02279856
0.106653
0.106536
0.105382
0.1039684
0.102031
0.09783156
0.08808169
0.08374552
0.08172477
0.08082701
0.08065578
0.08103335
0.0816646
0.0818769
0.08071613
0.07777344
0.07387475
0.06950354
0.06286642
0.05743512
0.05742777
0.06271794
0.07323112
0.09177351
0.09744259
0.09915614
0.09932588
0.0969688
0.08286886
0.0228117
0.1066519
0.1065297
0.1053641
0.1039225
0.1019174
0.09761172
0.08781275
0.08355566
0.08159656
0.08073352
0.08056786
0.08090299
0.08139833
0.0813084
0.07962521
0.07602186
0.0715939
0.06714911
0.06076409
0.05569579
0.05616526
0.06186661
0.07271115
0.09158005
0.09737533
0.0991439
0.09934488
0.09701005
0.08291275
0.02281979
0.1066506
0.1065231
0.1053433
0.103858
0.1017324
0.09726318
0.0876992
0.08363764
0.08169875
0.08080345
0.0805929
0.08086799
0.08126835
0.08102001
0.07909768
0.07521012
0.07055216
0.06607093
0.05974388
0.05467601
0.05528504
0.06120154
0.07227239
0.09140355
0.09730866
0.09912537
0.09935174
0.097033
0.08293791
0.02282444
0.1066496
0.1065182
0.1053263
0.1037979
0.1015202
0.09671163
0.08768591
0.08379419
0.08184651
0.08090632
0.08064728
0.08087933
0.08125545
0.08102754
0.0791977
0.0754667
0.0709509
0.06651129
0.06003866
0.0545422
0.05487261
0.06075562
0.07190474
0.09121358
0.09723231
0.0991006
0.09935014
0.09704336
0.08295043
0.02282681
0.1066492
0.1065163
0.1053204
0.1037699
0.10128
0.09534466
0.0877286
0.08377799
0.08183375
0.08090817
0.08064992
0.08089111
0.08133829
0.08133238
0.0799586
0.07686285
0.07287715
0.06854072
0.06170581
0.05537885
0.05501381
0.06059454
0.07158804
0.09084229
0.09709664
0.09906255
0.09934174
0.09704483
0.08295421
0.02282761
0.1066496
0.1065174
0.1053232
0.1037761
0.1013744
0.09611444
0.08767774
0.08376007
0.08180074
0.08086542
0.08061406
0.08090076
0.08150157
0.08188937
0.0812759
0.07920749
0.07605837
0.07187902
0.06451597
0.05709745
0.05575092
0.06088266
0.07150648
0.08988636
0.09681552
0.09900452
0.09932851
0.09703974
0.08295129
0.02282719
0.1066506
0.1065212
0.1053344
0.1038128
0.1015052
0.09648081
0.08776635
0.08372432
0.0817258
0.0807854
0.08055681
0.08091775
0.08172012
0.08258092
0.08285008
0.08196888
0.07980703
0.07584136
0.06786142
0.05925958
0.05674293
0.06126165
0.0716377
0.08906435
0.09672174
0.09899661
0.09932226
0.09703026
0.08294195
0.02282554
0.1066521
0.1065271
0.1053528
0.1038847
0.101798
0.09733103
0.08773859
0.08360297
0.08162612
0.08070753
0.08051665
0.08096623
0.08198343
0.08331723
0.08443894
0.08469863
0.08351517
0.07980234
0.07123317
0.06153143
0.05785831
0.06168747
0.07197665
0.09081935
0.09710079
0.09905579
0.09932208
0.09701463
0.08292451
0.02282236
0.1066539
0.1065341
0.1053723
0.1039407
0.1019618
0.0976941
0.08791047
0.08361449
0.08160511
0.08069822
0.08054215
0.08107607
0.08229636
0.08406242
0.08593895
0.08719693
0.08688228
0.08340707
0.07434652
0.06379661
0.05921198
0.06246342
0.07253589
0.09133598
0.09725704
0.09908674
0.09931307
0.09698747
0.0828953
0.02281702
0.1066554
0.1065407
0.1053895
0.1039816
0.1020574
0.0978797
0.08817771
0.08383236
0.08177111
0.08083105
0.08067258
0.08126553
0.08266463
0.08481386
0.08734033
0.08943819
0.08984445
0.08654011
0.07707897
0.06594069
0.06068406
0.06339854
0.07310985
0.0915762
0.09733859
0.09909939
0.09929124
0.09694292
0.08284846
0.02280845
0.1066555
0.1065458
0.1054048
0.1040165
0.1021331
0.09803915
0.08855222
0.08418897
0.08205661
0.08105262
0.08086792
0.08150641
0.08307181
0.08557065
0.08866478
0.091466
0.09244549
0.08921645
0.07942133
0.06791968
0.06220293
0.06443192
0.07372729
0.0917926
0.09740678
0.09910087
0.09925288
0.09687347
0.08277561
0.02279507
0.1066526
0.106548
0.1054193
0.1040551
0.1022313
0.098322
0.08928533
0.08463015
0.08232799
0.08124101
0.08103627
0.08173633
0.08348121
0.08632155
0.08993134
0.09333102
0.09475298
0.09149759
0.08142507
0.06975292
0.06375652
0.06555593
0.07440714
0.09202217
0.09747399
0.09909209
0.0991934
0.0967695
0.08266518
0.02277467
0.1066444
0.1065454
0.1054337
0.1041065
0.1023971
0.09892153
0.09030861
0.08451829
0.08217184
0.08118056
0.0810674
0.08189678
0.08386029
0.08705225
0.09114705
0.09506549
0.09681879
0.09344521
0.08316031
0.07149156
0.06536863
0.06678829
0.07516694
0.09225579
0.09754291
0.09907521
0.0991101
0.09662036
0.08250204
0.02274401
0.1066284
0.1065368
0.1054493
0.104168
0.1025595
0.09933407
0.09147039
0.08524285
0.08228986
0.08113758
0.08107357
0.08203796
0.08422306
0.08775766
0.09230562
0.09667528
0.09866492
0.09510003
0.08468761
0.07319228
0.06708549
0.06817251
0.07603825
0.09251191
0.09762963
0.09906391
0.09900896
0.09641807
0.08226754
0.02269866
0.1066027
0.1065255
0.1054747
0.1042526
0.1027776
0.1000745
0.09375136
0.08574928
0.08265423
0.0814074
0.0812876
0.08226969
0.08459105
0.08841514
0.09337356
0.09813487
0.1002805
0.0964724
0.08603535
0.07489019
0.06896168
0.0697888
0.07709666
0.09283775
0.09777771
0.09909951
0.09891989
0.09616738
0.08193945
0.022632
0.1065704
0.1065301
0.1055425
0.1044002
0.1030561
0.1005853
0.09441991
0.087276
0.08369352
0.08206169
0.08166222
0.08249729
0.08485501
0.08892302
0.09426944
0.09938542
0.1016252
0.09753714
0.08717529
0.07655888
0.07102515
0.07175374
0.07849933
0.09332404
0.09808453
0.09928262
0.09892974
0.09590787
0.08146959
0.02253456
0.1065507
0.1066078
0.1057374
0.1047198
0.1035685
0.101678
0.0971707
0.0884856
0.08454079
0.0824933
0.08172501
0.082359
0.08475232
0.0891014
0.0948746
0.1003475
0.1026394
0.09823294
0.08799785
0.07804791
0.07318544
0.07415925
0.08051501
0.09416267
0.09875082
0.09982687
0.0992455
0.09575605
0.08052472
0.0223967
0.1066024
0.1068784
0.1062063
0.1053669
0.1044118
0.1028711
0.09921769
0.09126276
0.08575634
0.08252093
0.0811068
0.08152361
0.0840483
0.08880085
0.095093
0.1009517
0.1032645
0.09847985
0.08831461
0.07902075
0.07505171
0.07682868
0.08345898
0.09571968
0.1001218
0.1010979
0.100286
0.09617761
0.07959838
0.02219999
0.1068069
0.1073918
0.1069694
0.1063744
0.1056875
0.104573
0.1020374
0.09575461
0.08585643
0.08123328
0.07944788
0.07990915
0.08276885
0.08805903
0.0949273
0.101165
0.1034591
0.09823216
0.08795932
0.07903689
0.07581123
0.07882739
0.08727288
0.09850048
0.1025015
0.1033716
0.1025077
0.09805401
0.07987288
0.02196013
0.1066848
0.107122
0.1068979
0.1066395
0.1063606
0.1058656
0.1045268
0.1003043
0.08779055
0.07944843
0.07756463
0.07828279
0.0815196
0.08724222
0.09449763
0.100943
0.1031491
0.09753933
0.08706168
0.0781068
0.0749116
0.07880309
0.09271972
0.1025604
0.1051043
0.1056315
0.1052026
0.102259
0.08605667
0.02337744
0.1068067
0.1073914
0.1069687
0.1063728
0.1056807
0.1045364
0.1017926
0.09463949
0.08607934
0.08141862
0.07938883
0.07952628
0.08180549
0.08610374
0.09160732
0.09648528
0.09809525
0.09350496
0.08461235
0.07719469
0.0749439
0.07844974
0.08713985
0.09847622
0.1025057
0.1033805
0.1025165
0.0980625
0.07988037
0.02196023
0.1061581
0.1077708
0.1081798
0.1075371
0.1062235
0.1040541
0.1002113
0.09417233
0.08794038
0.08368602
0.08146062
0.08123013
0.08306958
0.08687836
0.09188961
0.09638847
0.0978924
0.09358505
0.08498079
0.07772995
0.07553728
0.07869967
0.08571731
0.09366776
0.09810428
0.09897049
0.09637662
0.08745075
0.06364786
0.01661957
0.1052799
0.1062971
0.1068611
0.1063371
0.1048925
0.1024467
0.09842039
0.0935221
0.08884748
0.08534026
0.08330452
0.08292149
0.08435486
0.08754559
0.09182039
0.09567061
0.09689432
0.09287172
0.08458451
0.0773728
0.07485416
0.07721042
0.08284316
0.08945122
0.09344991
0.09403782
0.09088796
0.08138884
0.05858032
0.01594562
0.1049182
0.1052543
0.1053765
0.104582
0.1029164
0.1003068
0.09628909
0.09199548
0.08834061
0.0856331
0.08405352
0.08379501
0.08503648
0.08773269
0.09129097
0.09442014
0.09525152
0.09140922
0.08330147
0.07592264
0.07290608
0.07453565
0.07940389
0.08561921
0.08951718
0.09023928
0.08753792
0.07913772
0.05825305
0.01636716
0.1048304
0.1048185
0.1045531
0.1034246
0.101474
0.09860945
0.09470287
0.09058219
0.08735715
0.08514688
0.08396521
0.08390675
0.08508177
0.08739803
0.09029252
0.09266455
0.09300541
0.08924075
0.08124138
0.07368215
0.07033835
0.07168315
0.07648737
0.0829986
0.08715645
0.0882905
0.0863251
0.07913355
0.05956442
0.01679393
0.1048339
0.1046845
0.1041952
0.1028245
0.1006271
0.09746553
0.09325445
0.0892319
0.08629853
0.08442282
0.0835242
0.08361695
0.0847281
0.08668388
0.08890348
0.0904459
0.09018833
0.08643039
0.07857543
0.07099437
0.06765774
0.0691703
0.07435503
0.08144718
0.08601825
0.08761194
0.08628182
0.07993095
0.0609828
0.01709577
0.1048548
0.1046554
0.1040466
0.102517
0.10012
0.09664019
0.09239448
0.08851683
0.08570991
0.08396127
0.08316013
0.08326723
0.08422682
0.08575839
0.08722178
0.08781498
0.08684008
0.08304836
0.0754473
0.06808164
0.06508824
0.06707817
0.07283178
0.08054993
0.08553738
0.08752882
0.08666009
0.0808335
0.06215495
0.01729881
0.1048708
0.1046502
0.1039735
0.1023402
0.09979829
0.09606026
0.09174651
0.08810815
0.08544938
0.08374756
0.08293416
0.08295956
0.08369198
0.08472366
0.08532341
0.08482908
0.08302687
0.07918959
0.07198032
0.0650716
0.06268921
0.06532516
0.07168793
0.07998399
0.08533435
0.08764177
0.08709377
0.08159118
0.06302827
0.01743425
0.1048784
0.1046444
0.1039263
0.102228
0.09959168
0.095669
0.09118553
0.08761647
0.08507976
0.08346097
0.08267185
0.08263479
0.0831376
0.08363287
0.08328233
0.08158884
0.07889227
0.07502703
0.06833117
0.06207015
0.06047225
0.06381865
0.07076177
0.07955671
0.08521581
0.0877719
0.08744955
0.08215378
0.06364366
0.01752409
0.1048793
0.104633
0.1038867
0.1021467
0.099453
0.09541372
0.09079808
0.08720639
0.0847177
0.08315848
0.08240037
0.08231769
0.08260475
0.08256139
0.0812323
0.07831372
0.07473708
0.07087769
0.06474814
0.05921961
0.05846168
0.06250116
0.06996551
0.07918202
0.08510513
0.08785874
0.08770015
0.08254288
0.06406207
0.01758281
0.1048762
0.1046171
0.1038476
0.1020743
0.09933897
0.09521759
0.09052662
0.08691502
0.08444905
0.08292554
0.08218604
0.08205998
0.0821536
0.08162436
0.07941063
0.07540352
0.07106672
0.06722231
0.06159189
0.05672005
0.05671235
0.06135199
0.06925698
0.07882797
0.084984
0.08789444
0.08785783
0.08279737
0.0643375
0.01762023
0.1048713
0.1045986
0.1038056
0.1019961
0.09921546
0.09503158
0.09033361
0.08674603
0.08430692
0.0828029
0.08206381
0.08189196
0.08183313
0.08094699
0.07810389
0.07333632
0.06845221
0.06458951
0.05927747
0.05480663
0.05530414
0.06038026
0.06862313
0.07847722
0.08485547
0.08788972
0.08794516
0.08295411
0.06451177
0.01764315
0.1048661
0.1045798
0.1037615
0.1019107
0.09908916
0.09492565
0.09031424
0.08676638
0.08432436
0.08280105
0.08203249
0.08181165
0.08165986
0.08059971
0.07748033
0.07239522
0.06727551
0.06339275
0.05817456
0.05370769
0.05433359
0.05962604
0.06809151
0.07816313
0.08472542
0.08785775
0.08798346
0.08304256
0.06461544
0.01765631
0.1048622
0.1045658
0.1037276
0.1018424
0.09898277
0.09485828
0.09034618
0.0868324
0.08438218
0.08283355
0.08203332
0.08178329
0.08162244
0.08060459
0.07760755
0.07270904
0.0677459
0.06388823
0.05853306
0.0536083
0.05389977
0.05913855
0.06768037
0.07788135
0.08459185
0.08780778
0.08798904
0.08308412
0.06466975
0.01766298
0.1048607
0.1045604
0.1037151
0.1018141
0.09890757
0.09479458
0.09029054
0.08679297
0.08436291
0.08281971
0.0820151
0.08177822
0.08171184
0.08097967
0.0785533
0.0744014
0.06999438
0.06616529
0.06040928
0.05459534
0.05408846
0.0589879
0.06742811
0.07761297
0.08444202
0.08774421
0.08797308
0.08309295
0.06468839
0.01766519
0.1048617
0.1045635
0.1037217
0.1018269
0.09894525
0.09480645
0.09029991
0.08678358
0.08433701
0.08278477
0.08198388
0.08179531
0.08191419
0.08167727
0.08021112
0.07728671
0.07375501
0.06995503
0.06356504
0.05655785
0.05490656
0.05925507
0.06747447
0.07745764
0.08429405
0.08768018
0.08794557
0.08307765
0.06467872
0.01766397
0.1048651
0.1045746
0.1037462
0.1018746
0.09902635
0.09489755
0.09033102
0.08677008
0.0842996
0.08274033
0.08195519
0.08183975
0.08218896
0.08252693
0.08214962
0.08063366
0.07815514
0.07445975
0.06733608
0.05906825
0.05610031
0.0597129
0.06764043
0.07748456
0.08429632
0.08766969
0.08792103
0.08304249
0.06464254
0.01765932
0.1048703
0.1045916
0.1037845
0.1019508
0.09914554
0.09497065
0.09033101
0.08675061
0.08427335
0.08271719
0.08195748
0.08192588
0.08250924
0.08339525
0.08402323
0.08382124
0.08239704
0.07890725
0.07111416
0.06170554
0.05749048
0.06031986
0.0679261
0.07777359
0.08447428
0.08770913
0.08789386
0.08298121
0.06457371
0.01765037
0.1048764
0.1046117
0.1038281
0.1020314
0.09926656
0.0951083
0.09040788
0.08679257
0.08430891
0.08275936
0.08202529
0.08207386
0.08287203
0.08423745
0.08571697
0.08662956
0.08614319
0.08288984
0.07455794
0.0642676
0.05906687
0.06120825
0.0684711
0.07814613
0.08463388
0.08773524
0.08784023
0.0828773
0.06445818
0.01763528
0.1048818
0.1046308
0.1038694
0.1021053
0.09938045
0.095286
0.09061164
0.08698696
0.08448242
0.08291529
0.08218605
0.08229783
0.0832839
0.08505983
0.08724565
0.08907142
0.08936302
0.08630432
0.07754404
0.06663708
0.06072825
0.06227118
0.06913094
0.07850878
0.08476283
0.08772993
0.08774037
0.08270877
0.06427491
0.01761098
0.1048851
0.1046469
0.1039083
0.1021768
0.09949479
0.09548947
0.09090651
0.08729617
0.08476247
0.08315991
0.08242033
0.0825842
0.08374029
0.08587717
0.0886594
0.09123292
0.09214374
0.0891954
0.08008188
0.06878837
0.06241792
0.06345266
0.06987748
0.07889228
0.08487612
0.08768506
0.08757412
0.08244677
0.06399386
0.01757283
0.104884
0.104658
0.1039479
0.1022599
0.09964296
0.09577961
0.09134196
0.08769491
0.08509254
0.08343511
0.08268055
0.0828992
0.08422326
0.08669464
0.08999949
0.09319571
0.09458604
0.0916502
0.08224156
0.07076052
0.06413745
0.06474805
0.07071807
0.07931612
0.08498559
0.08759527
0.08732045
0.08205489
0.06357349
0.01751408
0.104876
0.104663
0.1039945
0.1023742
0.09986286
0.09622053
0.09179348
0.08799944
0.08533807
0.083658
0.08291795
0.08321308
0.08471465
0.08750824
0.091286
0.09501036
0.09676195
0.09374629
0.08410521
0.07261994
0.0659256
0.06618726
0.071677
0.07978925
0.08511752
0.0874712
0.08696759
0.0814941
0.06295956
0.01742487
0.1048593
0.1046665
0.1040647
0.1025458
0.1001733
0.09676571
0.09252077
0.08853508
0.08568621
0.08392936
0.08318867
0.08354978
0.08521449
0.08830769
0.09251495
0.0966907
0.09870323
0.09553078
0.08573646
0.07442946
0.06784347
0.06784851
0.07284796
0.08040419
0.08534758
0.08737235
0.08654184
0.08074195
0.06209052
0.01729059
0.1048375
0.1046935
0.1042095
0.1028458
0.1006626
0.09754004
0.09336852
0.08931237
0.08634194
0.08445312
0.08361188
0.08394528
0.08570489
0.08905272
0.09364784
0.09821277
0.100402
0.09701295
0.08715657
0.07621327
0.06994248
0.06984386
0.07439898
0.08134975
0.08586115
0.08747421
0.08617463
0.07984715
0.06092432
0.01708902
0.1048331
0.1048255
0.1045641
0.1034415
0.1015026
0.09866561
0.09476877
0.09062348
0.08738302
0.08518515
0.08408063
0.0842662
0.08605299
0.08962972
0.09459916
0.09951771
0.101818
0.09816233
0.08832139
0.07790994
0.07220049
0.07226479
0.07655612
0.08293988
0.08703201
0.08817336
0.08623046
0.07905808
0.05951091
0.01678878
0.1049202
0.1052595
0.1053852
0.1045967
0.1029426
0.1003371
0.09625956
0.09192839
0.08828145
0.08562404
0.0841562
0.08416099
0.08599868
0.08985945
0.09525119
0.1005274
0.1028919
0.09891363
0.08910652
0.07931897
0.07441197
0.07503718
0.07949251
0.08558991
0.08942403
0.09014436
0.08745775
0.07907226
0.05820707
0.01636349
0.1052812
0.1063007
0.106867
0.1063468
0.1049113
0.1024836
0.09847793
0.0935364
0.08879658
0.08530492
0.08338859
0.08328594
0.0853119
0.08959799
0.0955115
0.1011751
0.1035679
0.09919168
0.08933395
0.08009411
0.07607637
0.07765126
0.08294985
0.08944519
0.0933881
0.09396898
0.09082692
0.08133711
0.05854367
0.01594318
0.1061589
0.1077729
0.1081831
0.1075423
0.1062349
0.1040855
0.1002956
0.09421063
0.08786843
0.08362237
0.08154204
0.08160991
0.08403974
0.08889011
0.09538434
0.1014284
0.1038076
0.09896689
0.0888986
0.07992744
0.07654718
0.07910334
0.08584439
0.09368509
0.09807329
0.09893186
0.09634103
0.08741891
0.06362372
0.01661824
0.1068069
0.1073919
0.1069694
0.106374
0.1056849
0.1045551
0.1019342
0.09538752
0.08602638
0.08128402
0.07945911
0.07992588
0.08279471
0.08809567
0.09497922
0.1012323
0.1035321
0.09829103
0.0879965
0.07905336
0.07581678
0.07882915
0.08727311
0.0985002
0.1025015
0.1033715
0.1025075
0.09805364
0.07987229
0.02196007
0.106602
0.1068777
0.106205
0.1053632
0.1043986
0.1028475
0.09941252
0.09186809
0.08523982
0.08246003
0.08107842
0.08123083
0.08317589
0.08692078
0.09178668
0.09614965
0.09759301
0.09328672
0.08453483
0.07692164
0.07410555
0.07645848
0.08334263
0.09570264
0.1001327
0.1011126
0.1002996
0.09619001
0.07960957
0.02220037
0.1052799
0.1062972
0.1068612
0.106337
0.104893
0.1024547
0.09846278
0.09342801
0.08877253
0.08534309
0.08334203
0.08296576
0.08440874
0.08763916
0.09199931
0.09596692
0.09728625
0.09327562
0.0849087
0.0775732
0.07494726
0.07724149
0.08284987
0.08945516
0.09344839
0.09403471
0.09088473
0.08138579
0.05857791
0.01594535
0.1039421
0.1039104
0.1049429
0.1053453
0.1045967
0.1026137
0.09922094
0.09507043
0.09097841
0.08764022
0.0854633
0.0847332
0.08566151
0.08821688
0.09180437
0.09508528
0.09608927
0.09238516
0.08451327
0.07747409
0.07481455
0.07663182
0.08108785
0.08584123
0.08847048
0.08794424
0.08312143
0.07150925
0.0486741
0.01322107
0.1033553
0.102263
0.1026579
0.1029748
0.1024466
0.1008237
0.0980224
0.09462125
0.09123345
0.0883706
0.08641097
0.08564909
0.08629238
0.08830081
0.09113307
0.09364668
0.09421431
0.09070746
0.08319874
0.0762347
0.07326632
0.07440704
0.07787208
0.08154258
0.08342812
0.08248389
0.07748866
0.0662614
0.04511943
0.01274455
0.1031723
0.1015464
0.1013211
0.1011696
0.1003933
0.09872243
0.09617064
0.09319268
0.09031893
0.08792958
0.08631102
0.08569695
0.08623714
0.08783809
0.08996999
0.09167012
0.0916925
0.08826671
0.08101042
0.07400768
0.07071252
0.07135904
0.07430605
0.07762565
0.07945432
0.07882226
0.07457888
0.06464155
0.04506578
0.01306207
0.1031373
0.1013063
0.1007297
0.1001996
0.09910568
0.09719951
0.09457186
0.09172309
0.08912135
0.08705212
0.08571136
0.08525128
0.08573174
0.08696236
0.08837613
0.08917148
0.08852857
0.08510435
0.07809622
0.07112875
0.06774397
0.06831615
0.07131174
0.07488633
0.07712031
0.07714147
0.07385009
0.06510127
0.04639985
0.01344759
0.1031423
0.1012426
0.1004938
0.09973158
0.09839594
0.09624787
0.09350693
0.09067835
0.08818654
0.08627211
0.08507476
0.08467742
0.08503954
0.08583949
0.08642964
0.08616816
0.0847305
0.0812761
0.0746104
0.06788426
0.06475447
0.0656637
0.06910032
0.07323203
0.0760279
0.07671742
0.07421966
0.06628816
0.0479332
0.01373913
0.1031512
0.1012268
0.1003912
0.09949322
0.09799757
0.09566087
0.09281651
0.08999717
0.08755806
0.08570785
0.08455897
0.08414178
0.08430984
0.08457928
0.08418626
0.08267955
0.08033323
0.0768708
0.07069975
0.06446847
0.06191996
0.06344876
0.06750517
0.07226285
0.07559463
0.0768348
0.07490948
0.06748745
0.04921858
0.01393867
0.1031551
0.1012165
0.1003311
0.09935237
0.09775516
0.09528307
0.09232393
0.08947351
0.08705872
0.08525095
0.08412845
0.08366506
0.08359616
0.0832446
0.08170211
0.0787768
0.07546672
0.07207413
0.06655251
0.06103715
0.05930313
0.0615882
0.06629241
0.07162018
0.07542303
0.07708394
0.07555522
0.06844895
0.05017232
0.01407118
0.1031539
0.1012017
0.1002822
0.0992519
0.0975905
0.09502809
0.09198039
0.08908547
0.08667147
0.08488782
0.08378029
0.08326208
0.08293897
0.08191525
0.07911872
0.07470414
0.07048181
0.06726076
0.06246731
0.05777559
0.05694694
0.05999767
0.06529779
0.07111432
0.07531888
0.07729369
0.07604153
0.0691396
0.0508369
0.01415745
0.1031493
0.1011822
0.100235
0.09916607
0.09745258
0.09483168
0.09173039
0.08880652
0.08639161
0.08462306
0.08352234
0.08294901
0.08238756
0.08073448
0.0767681
0.07102451
0.06605541
0.06302987
0.05887928
0.05492898
0.0549173
0.05863682
0.06444262
0.07066807
0.07520837
0.07741798
0.07636323
0.06960124
0.05128016
0.01421217
0.1031434
0.1011607
0.1001875
0.09908373
0.09732571
0.09466794
0.09154794
0.08862062
0.08621271
0.08445413
0.08335217
0.08273033
0.0819884
0.07988202
0.07510082
0.06845949
0.06295486
0.06001658
0.0562729
0.05277265
0.05330259
0.0575045
0.0636986
0.07025224
0.07507658
0.07746317
0.0765521
0.0698902
0.05156304
0.01424553
0.1031375
0.1011402
0.1001425
0.0990057
0.09721198
0.09455544
0.09145353
0.08853725
0.08613224
0.08436974
0.0832537
0.08259382
0.08175659
0.0794456
0.07432563
0.0673275
0.06159444
0.05866331
0.05505365
0.05156136
0.05220716
0.0566381
0.06308448
0.06988269
0.07493232
0.07745115
0.07664532
0.0700562
0.05173262
0.01426458
0.1031332
0.1011253
0.1001093
0.09894748
0.0971274
0.0944791
0.09140213
0.08850051
0.08609713
0.08432506
0.08319173
0.08251591
0.08168698
0.0794468
0.07448877
0.06771728
0.06216413
0.05922805
0.05548444
0.05149982
0.05174257
0.05609586
0.06263335
0.06957803
0.07478895
0.07740394
0.07667415
0.07013689
0.05182248
0.01427412
0.1031315
0.1011194
0.1000962
0.09892393
0.09708698
0.09442767
0.09135371
0.08846145
0.08606267
0.08428521
0.08314302
0.08248601
0.08178712
0.07993458
0.07572963
0.06985495
0.06486974
0.06182955
0.05762418
0.05268177
0.05199892
0.05594609
0.06239494
0.06936742
0.07466269
0.07734051
0.0766616
0.07015784
0.05185451
0.0142772
0.1031326
0.1011228
0.1001031
0.09893524
0.09710461
0.09444581
0.09136485
0.08846091
0.08604944
0.08425901
0.08311361
0.08250892
0.08204876
0.08086953
0.07798013
0.07363618
0.06951647
0.0662521
0.06122559
0.05497703
0.05296761
0.05622646
0.06243126
0.0693169
0.07458691
0.07728283
0.07662476
0.07013401
0.05184042
0.01427534
0.1031363
0.1011351
0.1001289
0.09897887
0.09716927
0.0945139
0.09141608
0.08849126
0.08606091
0.08425723
0.08311673
0.08258509
0.08240597
0.08198091
0.080545
0.07796034
0.07493698
0.07155081
0.06558029
0.05795478
0.05445022
0.0568185
0.06265159
0.06938978
0.07459504
0.07725617
0.07657498
0.07007032
0.05178257
0.01426862
0.1031421
0.1011542
0.1001689
0.09904716
0.09727003
0.09461358
0.09149804
0.08855574
0.08610995
0.08429775
0.08316943
0.0827175
0.08280677
0.08305632
0.08288052
0.08187603
0.0799897
0.07670376
0.06991611
0.06107576
0.05620839
0.05765201
0.06304208
0.06958643
0.07468263
0.077252
0.07650234
0.06995561
0.05167112
0.01425572
0.103149
0.101177
0.1002166
0.09912694
0.09738642
0.09474103
0.09161914
0.08867034
0.08621877
0.08440398
0.08329112
0.08291554
0.08323948
0.08404383
0.08487183
0.08515512
0.08429433
0.08122746
0.07382037
0.06404237
0.05810686
0.05873034
0.06364951
0.0699171
0.07480047
0.07723099
0.07637687
0.06976276
0.05148385
0.01423386
0.1031556
0.1011997
0.1002652
0.09920929
0.09751215
0.09490646
0.09181185
0.08887441
0.08642076
0.08460037
0.08349816
0.08318942
0.08371369
0.08496948
0.08658834
0.08789159
0.08788667
0.08504407
0.07717029
0.06672978
0.06004217
0.05998134
0.06440655
0.07031486
0.0749117
0.0771604
0.07616369
0.06945353
0.05118754
0.01419846
0.1031604
0.1012196
0.100313
0.09929561
0.09764707
0.09510463
0.09207044
0.08916463
0.0867145
0.08488607
0.08378972
0.08353953
0.08423858
0.08587239
0.08813035
0.09024613
0.09092619
0.08824516
0.08000032
0.06913512
0.06197768
0.06136718
0.06528694
0.07076744
0.07500805
0.07701871
0.07582611
0.06897894
0.05073574
0.01414262
0.1031615
0.1012343
0.1003618
0.09939689
0.09781463
0.09536827
0.09242446
0.08955383
0.0870999
0.08525475
0.08415776
0.08395943
0.08481607
0.08677946
0.08957382
0.09234998
0.09356481
0.09095566
0.08240444
0.07132257
0.06393877
0.06290317
0.06631252
0.0713005
0.07510982
0.07680288
0.07533371
0.06828326
0.05006788
0.01405622
0.1031571
0.1012435
0.1004205
0.09953698
0.09805848
0.09575179
0.09289863
0.09004627
0.08757693
0.08570612
0.08460084
0.08444515
0.08544298
0.08770005
0.09095843
0.09428189
0.09590471
0.09327573
0.08447877
0.07337532
0.06598621
0.06465147
0.0675573
0.07199081
0.0752935
0.07656037
0.07469168
0.06732416
0.04911583
0.01392451
0.1031475
0.1012573
0.1005197
0.09976999
0.09844874
0.09632747
0.0935934
0.09074474
0.08822719
0.08629798
0.08515071
0.08500359
0.08610907
0.08862138
0.09228613
0.09606864
0.09799236
0.09526139
0.08628774
0.07535519
0.06818596
0.06671794
0.06917965
0.07302885
0.07575372
0.07646053
0.07401324
0.06613294
0.04783609
0.01372654
0.1031416
0.1013185
0.1007511
0.1002309
0.0991476
0.09726153
0.09464893
0.09179631
0.08918062
0.08710753
0.08582463
0.0856056
0.08676059
0.08948723
0.09351537
0.0976905
0.09982536
0.09692079
0.08783939
0.07725848
0.07055383
0.06920384
0.07140262
0.07474184
0.07687996
0.07690842
0.07365947
0.06495714
0.04631053
0.013437
0.1031757
0.1015563
0.1013385
0.1011952
0.1004278
0.09877262
0.09622837
0.09324938
0.09037208
0.08799246
0.08644342
0.08606858
0.08723554
0.09017025
0.09455704
0.09909032
0.101365
0.09821762
0.08906652
0.0789662
0.07296456
0.07208095
0.07439111
0.07751759
0.07924926
0.07861684
0.07440687
0.06450976
0.0449843
0.01305355
0.103358
0.102271
0.1026722
0.102996
0.1024754
0.1008612
0.09804481
0.09463704
0.09125052
0.08841001
0.08653544
0.08602013
0.08726289
0.09048737
0.09529425
0.1001933
0.1025551
0.09908353
0.08982659
0.08021401
0.07505239
0.07498625
0.07794761
0.08145987
0.08326236
0.08231313
0.07734178
0.06614622
0.04504762
0.0127379
0.1039442
0.1039165
0.1049535
0.1053608
0.1046191
0.1026488
0.09925993
0.09507958
0.09095224
0.08763012
0.08555586
0.08509039
0.08660929
0.09029734
0.09563876
0.1009376
0.1033452
0.09945099
0.08995597
0.08065696
0.07623315
0.07710773
0.08116674
0.08579009
0.08835396
0.08782038
0.08301225
0.07142053
0.04861661
0.01321632
0.1052813
0.106301
0.1068674
0.1063466
0.104909
0.1024803
0.09848797
0.09345698
0.08867539
0.08523428
0.08337483
0.08330263
0.08534509
0.08965109
0.09559337
0.1012867
0.1036943
0.09930199
0.08941055
0.08013233
0.07608946
0.07765335
0.08294889
0.08944504
0.0933859
0.09396627
0.09082408
0.0813342
0.05854119
0.01594286
0.1066024
0.1068786
0.1062064
0.1053658
0.1044039
0.102844
0.09919426
0.0911562
0.08541526
0.08227373
0.08102872
0.08153879
0.08410406
0.08889026
0.09522714
0.1011312
0.1034645
0.09864864
0.08842648
0.07907261
0.07506796
0.07683031
0.08345591
0.09571758
0.1001199
0.1010963
0.1002846
0.09617613
0.07959675
0.02219988
0.1065502
0.1066067
0.1057354
0.1047131
0.1035412
0.1015949
0.09709299
0.08871424
0.0846765
0.08260133
0.08172029
0.08208378
0.08392407
0.08727999
0.09158495
0.09543101
0.09665677