/*--------------------------------*- C++ -*----------------------------------*\
| =========                 |                                                 |
| \\      /  F ield         | OpenFOAM: The Open Source CFD Toolbox           |
|  \\    /   O peration     | Version:  2506                                  |
|   \\  /    A nd           | Website:  www.openfoam.com                      |
|    \\/     M anipulation  |                                                 |
\*---------------------------------------------------------------------------*/
FoamFile
{
    version     2.0;
    format      ascii;
    arch        "LSB;label=32;scalar=64";
    class       volVectorField;
    location    "500/airRegion";
    object      U;
}
// * * * * * * * * * * * * * * * * * * * * * * * * * * * * * * * * * * * * * //

dimensions      [0 1 -1 0 0 0 0];

internalField   nonuniform List<vector> 
85779
(
(-0.001367378 -0.001367435 -0.02126353)
(-0.001904785 -0.001904913 -0.02086457)
(-0.001943489 -0.001943431 -0.02023041)
(-0.001965876 -0.001964738 -0.01960933)
(-0.002287212 -0.002282362 -0.01931337)
(-0.003173479 -0.003186104 -0.01988983)
(-0.004471137 -0.004627545 -0.0218122)
(-0.001978983 -0.001694194 -0.02602681)
(0.004265965 0.004650789 -0.05848818)
(0.01412753 0.01432887 -0.07878904)
(0.02888248 0.02909879 -0.09423793)
(0.04725369 0.04756344 -0.1024823)
(0.06906524 0.06950568 -0.1026598)
(0.09330227 0.09392677 -0.09423137)
(0.1174802 0.1183544 -0.0770046)
(0.1374115 0.1385674 -0.05175608)
(0.1474003 0.1487573 -0.02093804)
(0.1402131 0.141545 0.0126987)
(0.1156155 0.1166998 0.0398492)
(0.08184101 0.08260977 0.05638776)
(0.04786754 0.04844934 0.05989574)
(0.02049438 0.02174526 0.05194709)
(0.001999179 0.002687848 0.03072168)
(-0.004810201 -0.005216832 0.01886515)
(-0.006408017 -0.006377729 0.01720667)
(-0.007723834 -0.007697379 0.01574168)
(-0.00949655 -0.009483346 0.01510374)
(-0.0117329 -0.01172594 0.01411806)
(-0.01358314 -0.01357945 0.01246344)
(-0.005033759 -0.005031762 0.00303106)
(-0.004364173 -0.001388727 -0.03819258)
(-0.006273639 -0.002170969 -0.03806165)
(-0.006373924 -0.002311672 -0.03761424)
(-0.005981931 -0.002233414 -0.03718751)
(-0.005579047 -0.002185717 -0.03737937)
(-0.004901995 -0.002298465 -0.03902632)
(-0.001561349 -0.001695707 -0.04151076)
(0.002662865 0.006452216 -0.05711053)
(0.007797483 0.01675617 -0.07578129)
(0.01867357 0.0254915 -0.09085011)
(0.03443469 0.03632321 -0.1027375)
(0.05391999 0.05005774 -0.108416)
(0.07675324 0.06671895 -0.1067862)
(0.1017759 0.08556452 -0.09708825)
(0.1264922 0.1046597 -0.07903577)
(0.146786 0.120549 -0.0533168)
(0.157035 0.1283377 -0.02232696)
(0.1498888 0.1222599 0.01132795)
(0.1246133 0.1023099 0.03917397)
(0.08941932 0.07540835 0.05730797)
(0.05333189 0.04879051 0.06362903)
(0.02327558 0.02699595 0.06001381)
(0.00464291 0.009778575 0.05068867)
(-0.005900955 -0.001126527 0.03286293)
(-0.01516956 -0.004599103 0.03045828)
(-0.02134 -0.006842975 0.02746757)
(-0.02764351 -0.008757813 0.02540012)
(-0.03608344 -0.01028216 0.02247922)
(-0.04986393 -0.009917381 0.01939331)
(-0.06718302 0.002035018 -0.002550692)
(-0.006980935 -0.001126916 -0.04580676)
(-0.01039683 -0.001927385 -0.04586751)
(-0.01070023 -0.00217244 -0.04579851)
(-0.009868203 -0.002171939 -0.04592299)
(-0.008472519 -0.002162338 -0.0470006)
(-0.005772694 -0.00222108 -0.04999623)
(0.002150721 -0.0002518828 -0.05379597)
(0.005940424 0.009145685 -0.07923315)
(0.01102021 0.0195714 -0.09309718)
(0.0239564 0.0281682 -0.1053586)
(0.04130187 0.03769964 -0.1136616)
(0.06232612 0.04924869 -0.1163696)
(0.08646627 0.06303752 -0.1124715)
(0.1124522 0.07856996 -0.1011534)
(0.1377914 0.09431973 -0.08205936)
(0.1584625 0.1074067 -0.05576105)
(0.1689182 0.1136319 -0.02447581)
(0.1618026 0.1081999 0.009365142)
(0.1358288 0.09103914 0.0380551)
(0.09915112 0.06807471 0.05770738)
(0.06083803 0.04527622 0.0662918)
(0.02816189 0.02607114 0.06486901)
(0.006897934 0.01066634 0.05775847)
(-0.008416708 0.0002378754 0.0378206)
(-0.02367802 -0.003634642 0.03488165)
(-0.03490151 -0.00610256 0.03074154)
(-0.04624902 -0.008031351 0.02721889)
(-0.06079851 -0.009381482 0.02233869)
(-0.08273729 -0.009151183 0.0181322)
(-0.1044313 -0.001842588 -0.01030723)
(-0.008995197 -0.0008111938 -0.0494779)
(-0.01381292 -0.001496724 -0.04951777)
(-0.01444076 -0.001787008 -0.04968326)
(-0.0132445 -0.001878166 -0.05033358)
(-0.01078471 -0.001969554 -0.05243208)
(-0.006134743 -0.002071447 -0.05646795)
(0.004095953 0.001373167 -0.0640374)
(0.009420478 0.01049603 -0.09177115)
(0.01559217 0.01932083 -0.1057038)
(0.02993587 0.02753382 -0.1168795)
(0.04873267 0.03632891 -0.1232482)
(0.07113893 0.0464955 -0.1238917)
(0.09641861 0.05828268 -0.1181866)
(0.1232009 0.07137221 -0.1054637)
(0.1490316 0.08457336 -0.0854218)
(0.1700068 0.09549477 -0.0585817)
(0.1806468 0.1005131 -0.02699358)
(0.1736032 0.09550106 0.007048607)
(0.1470435 0.08030747 0.03649289)
(0.1091009 0.06022752 0.05718583)
(0.06870028 0.04031904 0.0670486)
(0.03316228 0.02344965 0.06652887)
(0.008408216 0.01014536 0.05967114)
(-0.01129724 0.0007807446 0.03869252)
(-0.03146824 -0.002917215 0.03513153)
(-0.04730986 -0.005248279 0.03011373)
(-0.06311776 -0.006974799 0.02558314)
(-0.08205627 -0.008037575 0.01965181)
(-0.1078364 -0.007727633 0.01580904)
(-0.1265129 -0.00225476 -0.01494469)
(-0.01040899 -0.0005402481 -0.05132634)
(-0.01636077 -0.001060583 -0.05126099)
(-0.01734334 -0.001331493 -0.05153392)
(-0.01589373 -0.001455834 -0.05260823)
(-0.0125051 -0.001600935 -0.05567607)
(-0.00579431 -0.001616407 -0.06036868)
(0.005384657 0.002782478 -0.07367779)
(0.01218066 0.01132191 -0.1001894)
(0.02042955 0.01857144 -0.1146724)
(0.03623484 0.02582761 -0.1253333)
(0.05633196 0.03373597 -0.1306532)
(0.07983719 0.04266571 -0.1300252)
(0.1059233 0.0528075 -0.1230925)
(0.1331906 0.06392182 -0.109364)
(0.1592741 0.07505597 -0.08863358)
(0.1804129 0.08420591 -0.06140045)
(0.1911843 0.08821539 -0.02956747)
(0.1842435 0.08348681 0.004638587)
(0.157263 0.06986374 0.03466621)
(0.1184128 0.05223969 0.05593732)
(0.07634902 0.03497714 0.06638083)
(0.03823243 0.02048717 0.0661104)
(0.01005702 0.009226791 0.05905046)
(-0.01356548 0.001003465 0.03772015)
(-0.03785012 -0.002299954 0.03360156)
(-0.05762641 -0.004326185 0.02801346)
(-0.07697846 -0.005753857 0.02296169)
(-0.09880679 -0.006523976 0.01668965)
(-0.12634 -0.006133148 0.01365782)
(-0.141933 -0.002038683 -0.01801395)
(-0.01133487 -0.0003414849 -0.05228277)
(-0.01810614 -0.0007058449 -0.05210963)
(-0.01937893 -0.0009290461 -0.05241698)
(-0.0177358 -0.001066959 -0.05380571)
(-0.01360105 -0.001244408 -0.05753647)
(-0.004121494 -0.00117942 -0.06243686)
(0.006523321 0.003993933 -0.0850846)
(0.01387183 0.01167266 -0.1063408)
(0.02533878 0.01765652 -0.1207696)
(0.0425365 0.02379915 -0.1312111)
(0.06371184 0.0306442 -0.1358858)
(0.08807781 0.03836176 -0.1345063)
(0.1147025 0.04704742 -0.1268119)
(0.1422037 0.05648274 -0.1124621)
(0.1683491 0.06588117 -0.09133563)
(0.1895374 0.07353951 -0.06390835)
(0.2003814 0.07668026 -0.03194276)
(0.1935177 0.07215384 0.002346453)
(0.1662262 0.05989318 0.03275629)
(0.1268043 0.04451401 0.0542337)
(0.08358397 0.02975957 0.06483228)
(0.04343012 0.01758069 0.06453853)
(0.01228994 0.008211216 0.0572563)
(-0.01471225 0.001108716 0.03606803)
(-0.04244302 -0.001717466 0.03154576)
(-0.06547058 -0.003392759 0.02564851)
(-0.08756357 -0.004521769 0.02041246)
(-0.1113278 -0.005063278 0.01418246)
(-0.1397301 -0.004665329 0.01195299)
(-0.1527425 -0.001672934 -0.02001085)
(-0.01190838 -0.0002072579 -0.05279101)
(-0.01922412 -0.0004479675 -0.05254674)
(-0.02070092 -0.0006203484 -0.0528973)
(-0.01887776 -0.0007721675 -0.05457407)
(-0.01397722 -0.0009700653 -0.05902604)
(-0.00240471 -0.0008818565 -0.06420732)
(0.007501605 0.004296873 -0.09285655)
(0.0155055 0.01138044 -0.1112848)
(0.02951939 0.01652598 -0.125714)
(0.04823712 0.02163234 -0.1355386)
(0.07052602 0.02736471 -0.1395505)
(0.09563333 0.03391502 -0.1375699)
(0.1226309 0.04128115 -0.1293644)
(0.1502098 0.04924346 -0.1146581)
(0.1763046 0.05713747 -0.09336771)
(0.1974775 0.06350002 -0.06591979)
(0.2083376 0.06587324 -0.03392836)
(0.2014635 0.06151169 0.0003747373)
(0.1739044 0.05052996 0.03097434)
(0.1342015 0.03730085 0.05237421)
(0.09032763 0.02494517 0.06287209)
(0.0487424 0.01492931 0.06247291)
(0.01522613 0.007244527 0.05508533)
(-0.01461316 0.001170414 0.03434334)
(-0.04523884 -0.00117674 0.02956848)
(-0.07094552 -0.002518757 0.02353415)
(-0.09518562 -0.00339189 0.01829439)
(-0.1203269 -0.003776508 0.01225833)
(-0.1492211 -0.003435127 0.01072799)
(-0.1603325 -0.001291487 -0.02135815)
(-0.01224234 -0.0001191288 -0.05306619)
(-0.0198859 -0.0002638957 -0.05278668)
(-0.02147242 -0.0003711434 -0.05319638)
(-0.01945411 -0.0004603334 -0.05514033)
(-0.01374103 -0.0005238078 -0.06025679)
(-0.0002491565 -0.0001068856 -0.0659661)
(0.00845065 0.00433479 -0.09883283)
(0.01683564 0.01002586 -0.1155441)
(0.03305098 0.01452505 -0.1295863)
(0.05333739 0.01892727 -0.1386218)
(0.07670489 0.02383093 -0.1419592)
(0.1024431 0.02940561 -0.139455)
(0.1296915 0.03562599 -0.130891)
(0.1572519 0.04229617 -0.1160014)
(0.1832442 0.0488624 -0.09470503)
(0.2043776 0.05407038 -0.06735188)
(0.2151996 0.0557559 -0.03539721)
(0.2081798 0.05156776 -0.001106121)
(0.1803538 0.04187139 0.02951024)
(0.1406172 0.03074727 0.05061628)
(0.0965406 0.02066428 0.06085583)
(0.0540871 0.01261003 0.06034445)
(0.01877627 0.006375905 0.05297764)
(-0.01340228 0.001196717 0.03283185)
(-0.04648112 -0.0007090712 0.02791798)
(-0.07441845 -0.001761081 0.02183481)
(-0.1003848 -0.002430107 0.01666253)
(-0.126577 -0.002714304 0.01084952)
(-0.1558118 -0.002459003 0.009869407)
(-0.1656141 -0.0009533508 -0.02227969)
(-0.01241847 -6.353631e-05 -0.05321172)
(-0.02022529 -0.0001395625 -0.05291222)
(-0.02182367 -0.0001854202 -0.0533494)
(-0.01958724 -0.0001854803 -0.05541763)
(-0.01327224 -6.420588e-05 -0.0607582)
(0.001284884 0.0006712626 -0.06668219)
(0.01053481 0.004091185 -0.1004099)
(0.01974645 0.008247457 -0.1172146)
(0.0370731 0.01209166 -0.1312854)
(0.05832151 0.01597273 -0.1401019)
(0.08239701 0.02022694 -0.1431038)
(0.1085493 0.02496483 -0.1403059)
(0.1359178 0.03017126 -0.1315482)
(0.1633944 0.03568361 -0.1166048)
(0.1892723 0.04104707 -0.09539946)
(0.2103684 0.04519833 -0.068197)
(0.2210995 0.04627047 -0.03629395)
(0.2137883 0.04232553 -0.002007147)
(0.1856986 0.03399355 0.02846654)
(0.1461382 0.02493474 0.0491192)
(0.1022168 0.01695464 0.05900861)
(0.05934628 0.01062011 0.05840258)
(0.02273876 0.005601383 0.05114379)
(-0.01134733 0.001180443 0.03164079)
(-0.04652761 -0.0003370808 0.0266622)
(-0.07634326 -0.001148093 0.02055744)
(-0.1037289 -0.001658951 0.01546039)
(-0.1307687 -0.001879192 0.00984035)
(-0.1602918 -0.001712381 0.009278189)
(-0.1692203 -0.0006720165 -0.02288884)
(-0.01249951 -3.248321e-05 -0.05328913)
(-0.02036634 -7.038353e-05 -0.05298173)
(-0.02191937 -8.707395e-05 -0.05343579)
(-0.01947106 -5.893553e-05 -0.05556036)
(-0.0126966 0.00011198 -0.06096008)
(0.002673143 0.0009374023 -0.06695013)
(0.01280601 0.003799439 -0.1007218)
(0.0229014 0.006919485 -0.1176468)
(0.04103188 0.01002408 -0.1318508)
(0.06293139 0.01327032 -0.1406114)
(0.08748165 0.01681428 -0.143445)
(0.1138923 0.02072121 -0.1404697)
(0.1412981 0.02496396 -0.1315978)
(0.1686687 0.02939355 -0.1166534)
(0.1944486 0.03362894 -0.09556762)
(0.2155169 0.03678867 -0.06852009)
(0.2261133 0.03733663 -0.03665896)
(0.2184215 0.03378416 -0.002374165)
(0.1901351 0.02694759 0.02781512)
(0.1509277 0.01988691 0.04792618)
(0.1073941 0.01379052 0.0574411)
(0.06440287 0.008915768 0.05677208)
(0.02687128 0.004911321 0.04966488)
(-0.008766784 0.00116867 0.03078184)
(-0.04575543 -5.930817e-05 0.02578095)
(-0.07715923 -0.0006821446 0.01964735)
(-0.1057238 -0.00107156 0.01460503)
(-0.1334673 -0.001247689 0.009131399)
(-0.163255 -0.001151888 0.008873972)
(-0.1716255 -0.0004555557 -0.02328619)
(-0.01253044 -1.898046e-05 -0.05333605)
(-0.02040595 -4.541415e-05 -0.05303423)
(-0.02189515 -6.935581e-05 -0.05351669)
(-0.0192595 -8.396784e-05 -0.0556992)
(-0.01211499 1.156749e-05 -0.06109602)
(0.003982288 0.0009364123 -0.0672016)
(0.01488013 0.003546925 -0.1009099)
(0.02570173 0.005934413 -0.1179051)
(0.04445094 0.008285985 -0.1321143)
(0.0668469 0.01080819 -0.1407688)
(0.09175274 0.01358928 -0.1434353)
(0.118349 0.01665404 -0.140294)
(0.1457693 0.01995579 -0.1313129)
(0.1730475 0.02334642 -0.1163583)
(0.1987475 0.02650101 -0.09537182)
(0.2197797 0.02872872 -0.06846082)
(0.2302282 0.02888116 -0.03664893)
(0.222216 0.02594315 -0.002410085)
(0.1939167 0.0207375 0.02740589)
(0.1551995 0.01555545 0.04699228)
(0.1121397 0.01108714 0.05619285)
(0.06915199 0.007418006 0.05552508)
(0.03093263 0.004264187 0.04863054)
(-0.005962097 0.001162696 0.03025792)
(-0.0445173 0.0001275399 0.02517811)
(-0.07724843 -0.0003518604 0.01902679)
(-0.1067875 -0.0006463485 0.0140163)
(-0.1351165 -0.0007880307 0.008644223)
(-0.1651463 -0.0007426175 0.00860056)
(-0.173178 -0.0002956146 -0.02354063)
(-0.01254178 -1.660013e-05 -0.05337602)
(-0.02041372 -5.123787e-05 -0.05309844)
(-0.02184986 -0.0001201875 -0.05365007)
(-0.01904168 -0.0002680302 -0.0559652)
(-0.01158321 -0.0004762107 -0.06140759)
(0.004964593 0.0008232452 -0.06800018)
(0.01641689 0.003531324 -0.1016501)
(0.02780208 0.005193781 -0.1185572)
(0.04705641 0.00673433 -0.1325692)
(0.06985723 0.008470617 -0.1409666)
(0.09505448 0.01046136 -0.1433917)
(0.1218056 0.01268194 -0.1400487)
(0.1492434 0.01506203 -0.130932)
(0.176444 0.01745099 -0.1159358)
(0.2020519 0.01957729 -0.09501295)
(0.2230142 0.02095695 -0.06822487)
(0.2333736 0.02087213 -0.03650881)
(0.2253081 0.01877367 -0.002406695)
(0.1972953 0.01527786 0.02704689)
(0.1591511 0.01180757 0.04624506)
(0.1165098 0.008711993 0.05526791)
(0.07349826 0.006025832 0.05467453)
(0.03470784 0.003578591 0.04802693)
(-0.003205351 0.001051718 0.03003677)
(-0.04311292 0.0002149377 0.02478754)
(-0.07692563 -0.0001406083 0.0186287)
(-0.1072504 -0.0003559343 0.01362867)
(-0.1360546 -0.0004664095 0.008320291)
(-0.1662962 -0.0004525673 0.008419892)
(-0.1741362 -0.0001812885 -0.02369842)
(-0.01255189 -1.564549e-05 -0.05342184)
(-0.02043573 -5.533846e-05 -0.05319781)
(-0.02185841 -0.0001504795 -0.05390586)
(-0.0188723 -0.0003902714 -0.05664247)
(-0.01100948 -0.0008401372 -0.06225811)
(0.005142925 0.0006862873 -0.07191403)
(0.01686271 0.003195219 -0.103709)
(0.02892579 0.004162836 -0.1201259)
(0.04871036 0.00500222 -0.1334621)
(0.07189135 0.006041631 -0.1413807)
(0.09733345 0.007299595 -0.1434643)
(0.1242094 0.008722061 -0.1398858)
(0.1516577 0.01022491 -0.1306198)
(0.1787777 0.01166455 -0.1155674)
(0.2042624 0.01283207 -0.0946901)
(0.2251224 0.01346245 -0.06803363)
(0.2355031 0.01327956 -0.0364848)
(0.2277834 0.01217428 -0.002616047)
(0.2004144 0.01039549 0.02659735)
(0.1628785 0.008463659 0.04563516)
(0.1205038 0.006530382 0.05466099)
(0.07734058 0.004668821 0.05419007)
(0.03800787 0.002840069 0.04772583)
(-0.0007662306 0.0008410961 0.02999215)
(-0.04178369 0.0002111148 0.02459445)
(-0.07643926 -2.733723e-05 0.01840521)
(-0.1073642 -0.0001710431 0.01339294)
(-0.1365331 -0.0002499638 0.008117522)
(-0.166946 -0.0002523449 0.00830641)
(-0.174689 -0.0001018457 -0.02379073)
(-0.01256023 -9.183985e-06 -0.05345811)
(-0.0204582 -3.166215e-05 -0.05327993)
(-0.02187981 -7.800465e-05 -0.05413415)
(-0.01876389 -0.0001714354 -0.05725474)
(-0.01028196 -0.0002945956 -0.0630378)
(0.004929904 0.0004143898 -0.07674311)
(0.01653211 0.001614977 -0.1057122)
(0.02943883 0.002254157 -0.1215502)
(0.04962127 0.002802347 -0.1342731)
(0.07305621 0.003386998 -0.1417609)
(0.09865394 0.004046577 -0.1435656)
(0.125598 0.004761366 -0.1398032)
(0.153026 0.005460336 -0.1304285)
(0.1800389 0.006019936 -0.1153464)
(0.2053504 0.006301202 -0.09453224)
(0.2260684 0.00626277 -0.06805021)
(0.2365905 0.006064374 -0.0367689)
(0.2296559 0.005996652 -0.003237975)
(0.2032943 0.005878875 0.02593569)
(0.1663717 0.005341922 0.04510357)
(0.1240629 0.004430884 0.05435439)
(0.08056245 0.003318744 0.05407076)
(0.04066153 0.002108915 0.04772035)
(0.001151442 0.000616508 0.03010258)
(-0.04072211 0.0001217092 0.02455007)
(-0.07597134 6.58488e-06 0.01832026)
(-0.1073094 -6.337695e-05 0.01327477)
(-0.1367298 -0.0001076666 0.008006866)
(-0.1672657 -0.0001149634 0.008243179)
(-0.1749698 -4.699633e-05 -0.02383855)
(-0.0125627 -1.547935e-06 -0.05346864)
(-0.02046032 -4.209558e-06 -0.05329397)
(-0.02187226 -3.978967e-06 -0.05413528)
(-0.01879795 -4.253511e-05 -0.05717088)
(-0.01074604 -0.0001444249 -0.06269991)
(0.005611118 0.000384671 -0.07358434)
(0.01761459 0.0005622649 -0.1050527)
(0.02997743 0.000434326 -0.1214898)
(0.05002736 0.0005170991 -0.1343488)
(0.07349258 0.0006717245 -0.1418223)
(0.09912851 0.0007909015 -0.1435579)
(0.1260711 0.0008637432 -0.1397309)
(0.1534418 0.0008259678 -0.1303196)
(0.1803141 0.0005708946 -0.1152512)
(0.2053832 2.285878e-05 -0.09453717)
(0.2258855 -0.000646362 -0.06831632)
(0.2366277 -0.0008640729 -0.03747226)
(0.230869 1.673546e-05 -0.004436556)
(0.2058408 0.001454382 0.02491921)
(0.1695243 0.002229446 0.04455056)
(0.1270785 0.002289407 0.05430333)
(0.08303156 0.001946785 0.05434823)
(0.04247913 0.001507448 0.04811928)
(0.002324327 0.0004473234 0.03057908)
(-0.04003186 -0.000149234 0.02465464)
(-0.07563149 -3.661746e-05 0.0183707)
(-0.1072022 -5.638731e-06 0.01325802)
(-0.1367589 -9.554657e-06 0.007971174)
(-0.1673643 -1.483316e-05 0.008219847)
(-0.1750645 -6.76248e-06 -0.02385489)
(-0.01256441 4.428739e-06 -0.0534643)
(-0.02046639 1.618159e-05 -0.05328613)
(-0.02189938 4.239754e-05 -0.05418474)
(-0.01888818 3.080475e-05 -0.05736399)
(-0.009281618 -8.687812e-05 -0.06266619)
(0.004860363 0.0002196571 -0.08263362)
(0.01564417 -0.000435403 -0.1061336)
(0.02991104 -0.001198732 -0.1216178)
(0.04995685 -0.001629188 -0.1342771)
(0.07329048 -0.001958296 -0.141669)
(0.09885289 -0.002371797 -0.143438)
(0.125734 -0.002905635 -0.1396318)
(0.153028 -0.003623167 -0.1302373)
(0.1797474 -0.004610119 -0.1152041)
(0.2045191 -0.005879959 -0.09459802)
(0.2247153 -0.007097344 -0.06868088)
(0.2356654 -0.007408115 -0.03839134)
(0.231261 -0.005912222 -0.006008275)
(0.2078072 -0.003213014 0.02358987)
(0.172124 -0.001184194 0.04392676)
(0.1293957 -0.0001590242 0.05445738)
(0.08458841 0.0002064446 0.05512955)
(0.04291125 0.0004157354 0.04923)
(0.002366089 0.0002089569 0.03352968)
(-0.03959398 -0.0002010644 0.02495085)
(-0.07548209 -1.421807e-05 0.01866975)
(-0.1071018 6.485692e-05 0.01335539)
(-0.1366768 8.136708e-05 0.008003128)
(-0.1672956 7.458846e-05 0.008230832)
(-0.1750154 2.907273e-05 -0.02384624)
(-0.01256444 9.316961e-06 -0.05344183)
(-0.02046684 3.485911e-05 -0.05323493)
(-0.02191011 9.577051e-05 -0.05405801)
(-0.018968 0.0003037867 -0.05706003)
(-0.009521649 0.0007090159 -0.06230863)
(0.00470681 -0.0009401156 -0.08129881)
(0.01545521 -0.00263761 -0.1052159)
(0.02945619 -0.003101527 -0.1207945)
(0.04928603 -0.003652107 -0.1336853)
(0.07243692 -0.004436597 -0.1412889)
(0.09785789 -0.00537586 -0.1432141)
(0.1246468 -0.00650337 -0.1395062)
(0.1518758 -0.007869509 -0.1301633)
(0.1784773 -0.009528556 -0.1151577)
(0.2029761 -0.01142734 -0.09461223)
(0.2228463 -0.01311777 -0.06891691)
(0.233918 -0.01359577 -0.03910311)
(0.2306988 -0.01181242 -0.007356771)
(0.208786 -0.008198294 0.02234812)
(0.1737901 -0.00501247 0.04331494)
(0.1308628 -0.002977576 0.05453446)
(0.08543527 -0.001961772 0.0555603)
(0.04267525 -0.001424253 0.04995016)
(0.00211647 -0.0004683593 0.03615973)
(-0.03920825 0.0001433144 0.02509457)
(-0.0754644 0.0001436322 0.01879267)
(-0.1069669 0.0001688873 0.01345814)
(-0.1364679 0.0001897339 0.008071304)
(-0.167056 0.0001757373 0.008267546)
(-0.1748203 6.93493e-05 -0.02381453)
(-0.01256431 1.207064e-05 -0.05340766)
(-0.02046829 4.305709e-05 -0.05315651)
(-0.02192029 0.0001163567 -0.05379172)
(-0.01906133 0.0003527785 -0.05636009)
(-0.01145011 0.0008365767 -0.06169528)
(0.005100005 -0.001059543 -0.06997525)
(0.01683524 -0.003583032 -0.1025127)
(0.02848525 -0.004448081 -0.1192834)
(0.04792269 -0.005445361 -0.1327697)
(0.0708745 -0.006730116 -0.14082)
(0.09611462 -0.008233849 -0.1429689)
(0.1228034 -0.009983636 -0.1393978)
(0.1500031 -0.0120125 -0.1301131)
(0.1765671 -0.01433451 -0.1151003)
(0.2009081 -0.01682399 -0.09452867)
(0.2205382 -0.01895022 -0.06889974)
(0.2316532 -0.01964161 -0.03935711)
(0.2292528 -0.01777348 -0.008058884)
(0.2085742 -0.01349509 0.02161959)
(0.1741858 -0.009182293 0.04302428)
(0.1311195 -0.005956662 0.0546565)
(0.08528071 -0.003972081 0.05565713)
(0.04320764 -0.002705787 0.04945562)
(0.002142832 -0.0008768621 0.0313894)
(-0.04028274 0.0001771619 0.02511979)
(-0.07554539 0.0002215852 0.01877169)
(-0.1067605 0.0002800328 0.01355783)
(-0.136092 0.0003277165 0.008192294)
(-0.166601 0.000307368 0.008336777)
(-0.174443 0.0001218804 -0.02375379)
(-0.01256274 1.286061e-05 -0.05336794)
(-0.02047069 3.84157e-05 -0.05307128)
(-0.02195249 8.660429e-05 -0.05358078)
(-0.01921713 0.0001806008 -0.05581671)
(-0.01187832 0.0002863419 -0.0612343)
(0.004480471 -0.0009058558 -0.06754263)
(0.01575453 -0.003455566 -0.1011836)
(0.02689888 -0.005231894 -0.1180029)
(0.04595 -0.006966199 -0.1319884)
(0.06855575 -0.008857291 -0.1403813)
(0.09357336 -0.01099666 -0.1427689)
(0.1201718 -0.01342212 -0.1393379)
(0.1473923 -0.0161581 -0.1300957)
(0.174015 -0.01918007 -0.1150278)
(0.1983389 -0.02228879 -0.09433079)
(0.2178532 -0.02487566 -0.06859374)
(0.2289662 -0.0258178 -0.03908222)
(0.2269968 -0.02393467 -0.00796147)
(0.2070983 -0.01909839 0.02165192)
(0.1730834 -0.01365508 0.04333922)
(0.1298726 -0.009085103 0.0552629)
(0.08369023 -0.005833613 0.05629746)
(0.04154986 -0.003436186 0.05001155)
(0.0007540755 -0.0009751611 0.03140099)
(-0.04104401 -4.656206e-05 0.02547333)
(-0.0756888 0.0002530893 0.01899941)
(-0.1064324 0.0004362085 0.01380524)
(-0.1354649 0.0005257126 0.008405039)
(-0.1658388 0.0004944618 0.008455213)
(-0.17381 0.0001963552 -0.02365059)
(-0.01255717 1.699016e-05 -0.05333209)
(-0.02047829 3.912626e-05 -0.0530145)
(-0.0220247 5.530089e-05 -0.05346678)
(-0.01946791 5.426831e-05 -0.0555996)
(-0.01244621 -6.845132e-05 -0.0609666)
(0.003379821 -0.000912146 -0.06698034)
(0.01402526 -0.003492906 -0.100607)
(0.02462689 -0.005994412 -0.117453)
(0.04319906 -0.008410063 -0.1315489)
(0.06543521 -0.01097084 -0.1401084)
(0.09021608 -0.01379397 -0.1426464)
(0.1167312 -0.01694205 -0.1393121)
(0.1440145 -0.02044066 -0.1300783)
(0.1707823 -0.02422951 -0.1149035)
(0.1952179 -0.02803212 -0.09399012)
(0.2147346 -0.03114847 -0.06799228)
(0.2258222 -0.03238111 -0.0383028)
(0.2239496 -0.03047382 -0.007101158)
(0.2043661 -0.02507105 0.02247101)
(0.1704331 -0.01845356 0.04432574)
(0.127039 -0.01243427 0.05638092)
(0.08070663 -0.007842173 0.05738154)
(0.03878035 -0.004366999 0.05090617)
(-0.001372801 -0.00117139 0.03183063)
(-0.04207826 -7.240112e-05 0.02594541)
(-0.07578831 0.0004082429 0.01943288)
(-0.1058245 0.0006920724 0.01421043)
(-0.1344248 0.0008228133 0.008738661)
(-0.1646114 0.0007670046 0.008640571)
(-0.1727967 0.0003039746 -0.0234847)
(-0.0125281 3.256557e-05 -0.05328595)
(-0.02044273 7.141109e-05 -0.05296254)
(-0.02205493 9.150403e-05 -0.05338601)
(-0.019688 7.577152e-05 -0.0554579)
(-0.01303715 -5.0781e-05 -0.06080305)
(0.002093486 -0.0007180368 -0.06673957)
(0.01192291 -0.003847719 -0.1004677)
(0.02178852 -0.007163961 -0.1171651)
(0.03980083 -0.01012159 -0.1311572)
(0.06160638 -0.01328214 -0.1397782)
(0.08609387 -0.01677464 -0.1424306)
(0.1124942 -0.02066899 -0.1391815)
(0.1398488 -0.02498779 -0.1299448)
(0.1668165 -0.02963017 -0.1146354)
(0.1914581 -0.03423135 -0.09344561)
(0.2110674 -0.03797304 -0.06707992)
(0.2221134 -0.03953953 -0.03706228)
(0.2200713 -0.03755629 -0.005577488)
(0.2004006 -0.03149846 0.02399455)
(0.1662805 -0.02360922 0.04593926)
(0.1226858 -0.01602212 0.05798012)
(0.07643262 -0.009974291 0.05882866)
(0.03511133 -0.005376345 0.05206299)
(-0.003959754 -0.001374357 0.03240205)
(-0.04316797 3.563037e-05 0.026622)
(-0.07560795 0.0006900529 0.02008173)
(-0.1046988 0.001081822 0.01481272)
(-0.1327303 0.001255767 0.00923347)
(-0.1626847 0.001156818 0.008918107)
(-0.1712193 0.0004563951 -0.02322554)
(-0.01244517 6.500765e-05 -0.05320652)
(-0.020295 0.0001453871 -0.05288786)
(-0.0219444 0.0002021351 -0.05328403)
(-0.01977296 0.0002360039 -0.05526268)
(-0.01353323 0.0002893667 -0.06042963)
(0.0007499938 3.807655e-06 -0.06655383)
(0.00963403 -0.004603903 -0.09936813)
(0.01875309 -0.009180633 -0.1165546)
(0.03595424 -0.01235771 -0.1301901)
(0.05723807 -0.01587236 -0.1389703)
(0.08131162 -0.02000035 -0.1418139)
(0.1075047 -0.02467007 -0.1387047)
(0.1348866 -0.02988228 -0.1295044)
(0.1620616 -0.03548684 -0.1140784)
(0.1869581 -0.04101474 -0.09260187)
(0.2067136 -0.04549568 -0.06582127)
(0.2176999 -0.04744414 -0.03539469)
(0.2152815 -0.04531358 -0.003496132)
(0.1952118 -0.03846656 0.02610056)
(0.1607054 -0.02916532 0.04807994)
(0.1169534 -0.01986883 0.05999612)
(0.07106926 -0.0122224 0.06060257)
(0.03080472 -0.006375481 0.05348592)
(-0.00669348 -0.0014799 0.03317207)
(-0.04399511 0.0002579874 0.02757131)
(-0.07483005 0.001114087 0.02100695)
(-0.102726 0.001636254 0.01567483)
(-0.1300446 0.001861638 0.009947033)
(-0.1597301 0.001698411 0.009325602)
(-0.1688211 0.0006655771 -0.02282699)
(-0.01226488 0.0001206381 -0.05305817)
(-0.01994258 0.0002687558 -0.05275553)
(-0.02156453 0.0003820269 -0.05310723)
(-0.01957373 0.0004865468 -0.05483664)
(-0.01395977 0.0006107549 -0.05948317)
(-0.0030408 0.0003930255 -0.06547625)
(0.00937965 -0.003839579 -0.08619523)
(0.0191531 -0.01010345 -0.1123272)
(0.03242904 -0.01439433 -0.1275701)
(0.05251376 -0.01860541 -0.1370115)
(0.07596825 -0.02340899 -0.1404051)
(0.1017967 -0.02892635 -0.1375849)
(0.1291088 -0.03514062 -0.1285233)
(0.1564508 -0.04184667 -0.1130572)
(0.1816052 -0.04845436 -0.0913449)
(0.2015245 -0.05380526 -0.06417025)
(0.2124268 -0.05619152 -0.03332646)
(0.209476 -0.0538359 -0.0009600652)
(0.1887948 -0.04604502 0.02864855)
(0.1538026 -0.03516806 0.05060877)
(0.1100277 -0.02400727 0.06232647)
(0.06488001 -0.01460682 0.06266929)
(0.02619417 -0.00736392 0.05526163)
(-0.009174331 -0.001487593 0.03426446)
(-0.04418459 0.0005960229 0.02881824)
(-0.07305395 0.001693372 0.02227559)
(-0.09947832 0.002379916 0.01687549)
(-0.1259189 0.002675154 0.01095736)
(-0.155299 0.002429186 0.009918966)
(-0.1652513 0.0009408139 -0.0222202)
(-0.01192701 0.000208281 -0.05278314)
(-0.01927076 0.0004498025 -0.05251916)
(-0.02077623 0.0006189834 -0.05282253)
(-0.01897776 0.0007519129 -0.05436735)
(-0.01411972 0.0008150667 -0.05851801)
(-0.003365025 0.0004013059 -0.0639896)
(0.007695787 -0.003282 -0.08846947)
(0.01576799 -0.0101613 -0.1097095)
(0.02889107 -0.01578613 -0.1240666)
(0.04767377 -0.02107144 -0.1340482)
(0.07008356 -0.02678783 -0.1379285)
(0.09534197 -0.03332717 -0.1355564)
(0.1224625 -0.04071097 -0.1267779)
(0.1498989 -0.04869752 -0.1114037)
(0.1752765 -0.05656649 -0.08957029)
(0.1953447 -0.06293721 -0.06209145)
(0.2061326 -0.06582806 -0.03089274)
(0.2025409 -0.06316988 0.00191849)
(0.1811385 -0.05427383 0.03147583)
(0.1456785 -0.04164997 0.0533396)
(0.1021283 -0.02847174 0.06479736)
(0.05817678 -0.01716635 0.06489564)
(0.02165478 -0.008388282 0.05731225)
(-0.01101383 -0.001484097 0.03567659)
(-0.04331402 0.001032519 0.03040493)
(-0.06981314 0.002425471 0.02394889)
(-0.0944325 0.003321963 0.01849946)
(-0.119776 0.003722331 0.01236438)
(-0.1487892 0.003395171 0.01077837)
(-0.1600294 0.001274214 -0.02130426)
(-0.01134938 0.0003426522 -0.05227604)
(-0.01814287 0.0007081547 -0.05208891)
(-0.01943953 0.0009294727 -0.05236717)
(-0.01781868 0.001055096 -0.05369685)
(-0.01370426 0.001173085 -0.05734715)
(-0.004330401 0.000936823 -0.06233933)
(0.006157845 -0.003573887 -0.08461576)
(0.01331571 -0.01085433 -0.1056697)
(0.02479871 -0.01704703 -0.1197331)
(0.04215085 -0.02322221 -0.1299488)
(0.06350639 -0.03005014 -0.1343028)
(0.08808865 -0.0377824 -0.1324386)
(0.1148985 -0.04651388 -0.1240919)
(0.1423257 -0.05598167 -0.1089902)
(0.167851 -0.06531946 -0.08721275)
(0.1880208 -0.0728825 -0.05958474)
(0.1986578 -0.07635902 -0.02815585)
(0.1943656 -0.0733215 0.005005143)
(0.1722366 -0.06315224 0.03439195)
(0.1364506 -0.04860515 0.05603208)
(0.09348708 -0.03326353 0.06714245)
(0.05127433 -0.01991194 0.06701639)
(0.01753897 -0.009450364 0.05938955)
(-0.01185846 -0.001467998 0.0372853)
(-0.04096642 0.001548411 0.03230576)
(-0.06461947 0.003284571 0.02603098)
(-0.08699727 0.004442006 0.02060627)
(-0.1109086 0.005002182 0.01428505)
(-0.139398 0.004620978 0.01200214)
(-0.1525142 0.00165416 -0.01996749)
(-0.01041875 0.0005418437 -0.05131965)
(-0.01638516 0.001065015 -0.05124323)
(-0.0173812 0.00134042 -0.05149263)
(-0.01593983 0.001478579 -0.05251775)
(-0.01257461 0.001670164 -0.0555106)
(-0.005947541 0.001847224 -0.06018512)
(0.005149013 -0.002554092 -0.07313867)
(0.01181714 -0.01116522 -0.0995259)
(0.02006304 -0.01828209 -0.1137535)
(0.03600335 -0.02539459 -0.1241487)
(0.05632499 -0.03324206 -0.1291076)
(0.08010807 -0.04220035 -0.1279437)
(0.1064381 -0.05241967 -0.1202979)
(0.1336915 -0.06358584 -0.1057471)
(0.159233 -0.07463853 -0.08427798)
(0.1794186 -0.08360364 -0.05671262)
(0.189862 -0.08776868 -0.02522186)
(0.1848629 -0.08427014 0.008139912)
(0.162104 -0.0726334 0.0371858)
(0.1262487 -0.05595892 0.0583984)
(0.08432207 -0.03830326 0.06899275)
(0.04442614 -0.02278216 0.0686071)
(0.01407662 -0.01048447 0.06106421)
(-0.01148018 -0.00138528 0.03882051)
(-0.03683816 0.002123097 0.03429038)
(-0.05706646 0.004217076 0.02836384)
(-0.07660497 0.005675566 0.02314255)
(-0.098524 0.006464779 0.01678655)
(-0.126113 0.006090413 0.01370363)
(-0.1417803 0.002021947 -0.01797912)
(-0.009000114 0.0008125165 -0.04947034)
(-0.0138238 0.001500101 -0.04949897)
(-0.0144505 0.001792321 -0.04963388)
(-0.01323975 0.001885323 -0.05020293)
(-0.01081895 0.001982783 -0.05206779)
(-0.006369466 0.00212472 -0.05600233)
(0.004258641 -0.001155029 -0.06135462)
(0.009565396 -0.01029113 -0.09054294)
(0.01549058 -0.01906461 -0.1044774)
(0.02988895 -0.02716116 -0.1156224)
(0.04891 -0.03595863 -0.1217083)
(0.07163473 -0.04621226 -0.1218208)
(0.0972082 -0.05812877 -0.115365)
(0.1240329 -0.07130113 -0.1017613)