/*--------------------------------*- C++ -*----------------------------------*\
| =========                 |                                                 |
| \\      /  F ield         | OpenFOAM: The Open Source CFD Toolbox           |
|  \\    /   O peration     | Version:  2506                                  |
|   \\  /    A nd           | Website:  www.openfoam.com                      |
|    \\/     M anipulation  |                                                 |
\*---------------------------------------------------------------------------*/
FoamFile
{
    version     2.0;
    format      ascii;
    arch        "LSB;label=32;scalar=64";
    class       volScalarField;
    location    "200/airRegion";
    object      epsilon;
}
// * * * * * * * * * * * * * * * * * * * * * * * * * * * * * * * * * * * * * //

dimensions      [0 2 -3 0 0 0 0];

internalField   nonuniform List<scalar> 
85779
(
0.00833848
0.00776273
0.007624515
0.007581376
0.007562261
0.007532995
0.007395198
0.006703644
0.003163099
0.001823863
0.001198733
0.00086334
0.0006722091
0.0005638426
0.0005057132
0.0004787427
0.0004808347
0.0005337333
0.0006665328
0.0009464715
0.001534539
0.002895127
0.006607801
0.007383453
0.0075539
0.007617016
0.007683844
0.007871557
0.008979488
0.02346783
0.007929715
0.006988831
0.006694175
0.006579683
0.006513408
0.006413557
0.006052755
0.004087071
0.002474403
0.00159192
0.001105288
0.0008216102
0.0006529312
0.0005555174
0.0005029678
0.0004779096
0.0004774141
0.0005198494
0.0006316469
0.0008658462
0.001326802
0.002236306
0.00396816
0.006077361
0.006467965
0.006609132
0.006731093
0.006980604
0.008070652
0.01944994
0.007937294
0.006914289
0.006556662
0.006400982
0.006297116
0.006125853
0.005550008
0.00316139
0.00201874
0.00138787
0.001011562
0.000777749
0.0006321626
0.0005448427
0.000495383
0.0004690119
0.0004632519
0.0004947938
0.0005885788
0.0007861183
0.001160215
0.001853311
0.003149713
0.00574765
0.006240904
0.006428628
0.006585817
0.006864544
0.007958235
0.02009325
0.007987694
0.006957764
0.006580152
0.006403886
0.006267589
0.005985672
0.004854831
0.002731283
0.001786933
0.001266105
0.0009481001
0.0007452654
0.0006156851
0.0005355614
0.0004877075
0.0004589656
0.0004472274
0.0004681909
0.000547772
0.0007222275
0.001052462
0.00166793
0.002891596
0.005679897
0.006226093
0.00644665
0.006628607
0.006920687
0.007998691
0.02063135
0.008026745
0.00700392
0.006620828
0.006433752
0.006272745
0.005881505
0.003800959
0.002425118
0.001647737
0.001191134
0.0009063297
0.0007222466
0.0006029072
0.0005273278
0.0004798694
0.0004481435
0.000430115
0.0004408685
0.0005094738
0.0006712261
0.0009841087
0.001578642
0.002802066
0.005674227
0.006253933
0.006499893
0.006699847
0.006997346
0.008054949
0.021013
0.008051566
0.007035584
0.006650791
0.006456408
0.006273608
0.005802161
0.003385676
0.002204337
0.001539397
0.001134248
0.0008748216
0.0007042553
0.0005920103
0.0005193205
0.0004715148
0.0004364904
0.0004120022
0.0004127515
0.0004723433
0.0006266413
0.0009327503
0.001522475
0.002753833
0.005671748
0.00627894
0.006546592
0.006760964
0.00706286
0.008121305
0.02128311
0.008066189
0.007054551
0.006668517
0.006468281
0.006270349
0.005757696
0.003248834
0.002096732
0.001472026
0.001094027
0.0008507499
0.0006894071
0.0005820477
0.0005111911
0.0004626479
0.0004242088
0.0003931439
0.0003840149
0.0004357964
0.0005849166
0.0008872782
0.001474592
0.002710496
0.005658311
0.006291104
0.006578486
0.006805225
0.007110771
0.008170046
0.02146573
0.00807442
0.007065084
0.006677623
0.006472059
0.006261233
0.005718852
0.003186476
0.00204054
0.001431039
0.00106624
0.0008322267
0.0006767787
0.0005727298
0.0005030609
0.0004536239
0.0004117493
0.0003739707
0.0003551173
0.0004000744
0.0005451571
0.00084434
0.001428438
0.002664792
0.005633193
0.00629045
0.006596251
0.006834098
0.007143161
0.008202724
0.0215858
0.008079009
0.007070805
0.006681755
0.006469972
0.006240017
0.005644192
0.003115721
0.001989526
0.001396217
0.001042711
0.0008161574
0.0006654081
0.0005640118
0.0004952832
0.0004449594
0.0003996712
0.0003550101
0.0003267369
0.0003658581
0.0005076449
0.0008036051
0.001383338
0.002616722
0.005598389
0.006279503
0.00660265
0.006850685
0.007163408
0.008223387
0.02166122
0.008081695
0.007074139
0.006683391
0.006461562
0.006185277
0.005381721
0.002965202
0.001914673
0.001355884
0.001018945
0.0008010178
0.000654991
0.0005560793
0.000488226
0.0004370932
0.0003884891
0.0003369109
0.0002998514
0.0003340174
0.0004728613
0.0007652974
0.001339646
0.002567166
0.005551545
0.006260774
0.006600655
0.006858083
0.007174597
0.008235304
0.02170465
0.008083124
0.007075737
0.006683304
0.006451984
0.006125583
0.004984806
0.002812648
0.0018472
0.001320562
0.000998317
0.0007879405
0.0006459991
0.0005492119
0.0004820985
0.0004302518
0.0003786672
0.0003206914
0.0002759059
0.0003055391
0.0004410128
0.0007288126
0.001295642
0.002512846
0.005486819
0.006235736
0.006592859
0.006859047
0.007179336
0.00824102
0.02172549
0.008083717
0.007076119
0.006682214
0.006445828
0.00610002
0.004885159
0.002752037
0.001810405
0.001297338
0.0009832502
0.0007778133
0.0006387817
0.0005435479
0.0004769538
0.0004245673
0.000370799
0.0003079026
0.000256746
0.0002815217
0.0004120046
0.0006920021
0.001244158
0.00243628
0.005392494
0.006201326
0.006580731
0.006855863
0.007179813
0.008242571
0.0217311
0.008083908
0.007075975
0.006680757
0.006440495
0.006064664
0.004335351
0.002672215
0.001782234
0.001280921
0.0009724375
0.0007703672
0.0006333183
0.0005391046
0.0004728365
0.0004202406
0.0003655637
0.0003001384
0.0002441659
0.0002632004
0.0003861256
0.0006525047
0.001172092
0.00228476
0.00512997
0.006136661
0.006563631
0.006850406
0.007177914
0.008241691
0.02172768
0.008083934
0.007075736
0.00667968
0.006436793
0.006049406
0.004264105
0.002641236
0.001766037
0.00127088
0.0009657084
0.0007655913
0.0006296343
0.0005359086
0.000469782
0.0004173711
0.0003632772
0.000298287
0.0002394129
0.0002520714
0.0003658246
0.0006160667
0.00109176
0.002038022
0.004003049
0.006023145
0.006544535
0.006844664
0.007175269
0.008239886
0.02172081
0.008083942
0.007075657
0.006679255
0.006433209
0.006018763
0.003982257
0.002572533
0.001749222
0.001265184
0.0009627594
0.0007634903
0.0006277903
0.0005340144
0.0004677637
0.0004157317
0.0003634882
0.0003019915
0.0002428435
0.0002494857
0.0003545135
0.0005930877
0.001045831
0.001947714
0.00415189
0.005990225
0.006534276
0.006840811
0.007173266
0.008238439
0.02171547
0.008083975
0.007075761
0.006679515
0.006433718
0.006019565
0.003981617
0.00257362
0.001751414
0.0012672
0.0009641145
0.0007641833
0.0006279072
0.0005335904
0.0004669276
0.0004151975
0.0003652753
0.0003089566
0.0002530657
0.0002555872
0.0003535357
0.0005852381
0.001028215
0.001882977
0.003542992
0.005958175
0.006530351
0.006839587
0.007172738
0.008238173
0.02171497
0.008084018
0.007076015
0.006680391
0.006438179
0.006051464
0.004261464
0.002644274
0.001772418
0.001276705
0.0009695908
0.0007675801
0.0006300071
0.0005347931
0.0004675812
0.0004161137
0.0003684066
0.0003170419
0.0002667595
0.0002682424
0.0003624323
0.0005923602
0.001040659
0.001932886
0.003788304
0.005981897
0.006533941
0.006841004
0.007173653
0.008239025
0.02171892
0.008083997
0.007076288
0.006681683
0.00644323
0.006072989
0.004353323
0.002691613
0.001797591
0.001291227
0.0009785665
0.0007734425
0.0006340184
0.0005376885
0.0004699484
0.0004188276
0.0003731289
0.0003260898
0.0002819017
0.000285111
0.000379319
0.0006131631
0.001076269
0.002003658
0.003918006
0.006009666
0.006542048
0.006844084
0.00717514
0.008240137
0.02172388
0.008083805
0.007076407
0.00668311
0.006449493
0.006115186
0.004924803
0.002790698
0.001834286
0.001311053
0.0009908901
0.0007816753
0.0006398819
0.0005422478
0.0004740477
0.0004234261
0.0003796244
0.0003363661
0.0002980436
0.0003050478
0.0004028055
0.0006466055
0.001139748
0.00215989
0.004588348
0.006076501
0.006555372
0.006847547
0.007175906
0.008240276
0.02172517
0.008083125
0.007075803
0.00668399
0.006458479
0.006147028
0.004712802
0.002877801
0.00188907
0.001340792
0.001008236
0.0007927682
0.0006476715
0.0005483984
0.0004797493
0.0004297757
0.0003878737
0.0003481055
0.0003153974
0.0003276189
0.0004314793
0.0006895345
0.001226572
0.002397693
0.005312584
0.006181427
0.006572555
0.006849662
0.007174411
0.008238002
0.02171742
0.008081693
0.007074199
0.006684187
0.006469327
0.006231098
0.005595742
0.003085977
0.001966207
0.001378542
0.001029797
0.0008064295
0.0006572113
0.0005559544
0.0004868229
0.0004376253
0.0003977194
0.0003614116
0.0003342908
0.0003525932
0.0004629736
0.000730763
0.001286875
0.002496093
0.005454108
0.006220284
0.006581062
0.006847825
0.007168966
0.008231781
0.02169509
0.008079213
0.007071315
0.006682994
0.006474291
0.006257042
0.005701355
0.003161561
0.002015993
0.001411289
0.001051577
0.0008213083
0.0006679547
0.0005645754
0.0004949392
0.0004466266
0.000408876
0.0003762033
0.000354918
0.0003800045
0.0004971711
0.0007721319
0.001337287
0.002557209
0.005518923
0.006241627
0.006582965
0.006840025
0.007157465
0.008219639
0.02165107
0.008074726
0.007065803
0.006679049
0.006475224
0.006269503
0.005740757
0.003213831
0.002060336
0.001444034
0.001074699
0.0008375314
0.0006797185
0.000573937
0.0005036832
0.0004563185
0.0004209168
0.000392202
0.0003772451
0.0004098033
0.000534186
0.0008155065
0.001386734
0.002611497
0.005571354
0.006255464
0.006577301
0.006823697
0.007137327
0.008199044
0.02157604
0.008066448
0.007055174
0.006669745
0.006470954
0.006277643
0.005783399
0.003345775
0.00214333
0.001494503
0.001105956
0.0008574505
0.0006930713
0.0005838919
0.0005126169
0.0004661544
0.0004332956
0.0004089532
0.0004009911
0.0004416912
0.0005737401
0.000861147
0.001437011
0.002662657
0.00560563
0.006259562
0.006561176
0.006795697
0.007105426
0.008166692
0.02145722
0.008051668
0.007035884
0.00665147
0.006458561
0.006284607
0.005885736
0.004354752
0.002397937
0.001593599
0.001154559
0.0008841108
0.000708903
0.0005944599
0.0005213805
0.0004756126
0.0004454429
0.000425905
0.0004256841
0.0004751692
0.0006153264
0.0009086732
0.00148785
0.002710477
0.005626442
0.006251719
0.006531712
0.006752818
0.007058316
0.008118514
0.02127645
0.00802668
0.007003887
0.006620941
0.006434892
0.006281447
0.005940815
0.004226445
0.002565188
0.001697065
0.001211847
0.0009162522
0.000727336
0.0006057428
0.0005298361
0.0004843667
0.0004569176
0.0004425318
0.0004507847
0.0005097941
0.0006588741
0.0009588008
0.001540711
0.002756057
0.005635748
0.006231591
0.006488014
0.006693478
0.00699388
0.008053336
0.02100869
0.007987493
0.00695746
0.00657982
0.006404081
0.006271364
0.006007091
0.004940027
0.002792802
0.00182058
0.001283962
0.0009576668
0.0007504381
0.0006187146
0.000538351
0.0004924426
0.000467527
0.0004584613
0.0004758018
0.0005455325
0.0007057961
0.001016225
0.001605335
0.002812913
0.005642147
0.006207679
0.006437904
0.006624223
0.006918392
0.007997896
0.02062915
0.007937006
0.006913769
0.006555916
0.006400505
0.006299887
0.006143201
0.005611749
0.003252333
0.002064559
0.001409674
0.001022353
0.0007832764
0.0006353401
0.0005477919
0.0005002163
0.0004772935
0.0004734585
0.0005003983
0.0005828448
0.0007599011
0.00109401
0.001714693
0.002941278
0.005690207
0.006222729
0.006422494
0.006583358
0.006863377
0.007957996
0.02009271
0.007929462
0.006988329
0.006693378
0.006578774
0.006513983
0.006423224
0.006106156
0.004405264
0.002562295
0.001620559
0.001117251
0.0008272917
0.0006561253
0.0005585254
0.0005077842
0.0004857999
0.00048656
0.00052334
0.0006213335
0.000825664
0.001215821
0.001956852
0.003391072
0.005967698
0.006446611
0.006605034
0.006730206
0.006980331
0.008070826
0.01945025
0.00833834
0.007762417
0.007623943
0.007580482
0.00756144
0.007534736
0.007407488
0.006732049
0.003191814
0.00184096
0.001208019
0.0008682734
0.0006751828
0.0005668
0.0005104612
0.0004863327
0.0004891447
0.0005351196
0.0006513612
0.0008931987
0.001383333
0.002465958
0.00529044
0.007238127
0.007538256
0.007616387
0.007684383
0.007871884
0.008979793
0.02346804
0.00792971
0.006988825
0.006694155
0.006579619
0.006513211
0.006411356
0.006033329
0.004304538
0.002511021
0.001597759
0.001106855
0.0008223704
0.0006533088
0.0005556072
0.0005029452
0.0004780609
0.0004779697
0.0005207641
0.0006323989
0.000865305
0.001323726
0.002247192
0.004151712
0.006088812
0.006469898
0.006611296
0.006733193
0.006982378
0.008071919
0.0194538
0.007248
0.00558963
0.00491314
0.004596793
0.004397647
0.004177735
0.003777786
0.002913179
0.00201493
0.001408195
0.001025404
0.0007845523
0.000635433
0.0005477518
0.0005001665
0.0004768529
0.0004740966
0.0005066433
0.0005984351
0.0007915777
0.001152635
0.001785119
0.002778249
0.003790741
0.004262085
0.004506431
0.0046925
0.0049439
0.005581226
0.008429213
0.007201248
0.005340714
0.004486711
0.004047121
0.003757186
0.003461115
0.003028812
0.002294597
0.001681541
0.001243515
0.0009447525
0.0007453002
0.0006163745
0.0005376639
0.0004926023
0.0004676402
0.0004595478
0.0004813081
0.0005557342
0.0007156294
0.001005279
0.001483806
0.0021984
0.003071688
0.003556804
0.003839979
0.004059359
0.004324862
0.004907265
0.007439502
0.007249842
0.005354095
0.004433886
0.003931158
0.003580406
0.003215932
0.002683088
0.002018261
0.001506389
0.001142392
0.0008892419
0.0007161129
0.0006013461
0.0005289757
0.0004850158
0.0004573733
0.0004432434
0.0004544344
0.0005147221
0.0006524896
0.0009035086
0.001319677
0.001965511
0.002847387
0.003369522
0.003693453
0.003954174
0.004266334
0.004940195
0.008041135
0.007294689
0.005404244
0.004462753
0.003929614
0.003539864
0.003122804
0.002484324
0.001872485
0.001409829
0.00108194
0.0008532895
0.0006957148
0.0005898225
0.0005212747
0.0004772294
0.0004462919
0.0004257938
0.0004267268
0.0004757655
0.0006002636
0.000833851
0.001230035
0.001867996
0.002784019
0.003351267
0.003716341
0.004014526
0.004364019
0.005106492
0.008681542
0.007323993
0.005443396
0.004495049
0.003945533
0.003527995
0.003070374
0.002357507
0.00177209
0.001343511
0.001040143
0.0008276493
0.000680233
0.0005800572
0.000513695
0.0004688356
0.0004342836
0.0004072031
0.0003980621
0.0004378078
0.0005540948
0.0007799535
0.001170767
0.001814534
0.002762602
0.003372786
0.003774528
0.004101957
0.00447476
0.005256304
0.009149905
0.007341051
0.005467281
0.004515738
0.003955722
0.00351911
0.003037439
0.002293892
0.001712382
0.001299225
0.001010144
0.0008080499
0.0006673891
0.0005709859
0.0005058598
0.0004598508
0.0004215655
0.0003877009
0.0003685814
0.0004003849
0.0005110803
0.0007327197
0.001121315
0.00177033
0.002741153
0.003389582
0.003823328
0.004173787
0.004561323
0.005363737
0.009467606
0.007350239
0.00547997
0.004525679
0.003957274
0.003505597
0.003008551
0.002253934
0.001673864
0.001268484
0.0009876842
0.0007921999
0.0006560867
0.0005622849
0.0004979221
0.0004506936
0.0004086355
0.0003677163
0.0003386817
0.0003637173
0.0004703381
0.0006887899
0.001074703
0.001724979
0.002707768
0.00339018
0.003852484
0.004222258
0.004620475
0.005434667
0.009674934
0.0073548
0.005485713
0.004528124
0.003950575
0.003480515
0.002964182
0.0022095
0.001637497
0.001241212
0.0009679983
0.0007780944
0.000645712
0.0005540415
0.0004903179
0.0004419596
0.0003960958
0.000347745
0.0003089842
0.0003284426
0.0004319778
0.0006474171
0.001029451
0.001676589
0.002658441
0.003374652
0.003863163
0.004249955
0.004657025
0.005478545
0.009803869
0.007356806
0.005487523
0.004525797
0.003935947
0.003436203
0.002870345
0.002139241
0.001592412
0.001212326
0.0009489483
0.0007650307
0.0006362453
0.0005465496
0.0004834656
0.0004341143
0.0003844525
0.0003283733
0.0002805292
0.000295462
0.0003963413
0.0006085301
0.0009857808
0.001627636
0.002604933
0.00334768
0.003859646
0.004261673
0.004676609
0.005503114
0.009877099
0.007357412
0.005487304
0.004521772
0.003921441
0.003396174
0.002779899
0.002076949
0.001553271
0.001187367
0.0009325414
0.0007537922
0.0006280806
0.0005400624
0.0004775225
0.0004272948
0.0003741145
0.0003107051
0.0002550683
0.0002659349
0.0003637058
0.0005717284
0.0009429052
0.001578001
0.002553963
0.003313069
0.003846179
0.004262076
0.004684164
0.005514265
0.009911213
0.007357314
0.005486215
0.004517808
0.003911143
0.003375184
0.00274209
0.002043676
0.001528295
0.001169631
0.000920118
0.0007449403
0.0006214562
0.0005346473
0.0004724436
0.0004215182
0.0003657336
0.0002967596
0.0002348721
0.0002412622
0.0003344018
0.0005361202
0.0008974581
0.001518763
0.002486363
0.003268423
0.003825512
0.004255103
0.004683811
0.00551657
0.0099189
0.007356975
0.005484977
0.004514462
0.00390372
0.003360625
0.002701027
0.002019049
0.001510871
0.001157086
0.0009111341
0.0007383788
0.0006163759
0.0005303102
0.000468279
0.0004170609
0.0003602515
0.0002886186
0.0002220838
0.0002229809
0.0003093547
0.0005016475
0.0008459909
0.001435429
0.002367415
0.00320539
0.00379911
0.004244196
0.004679115
0.005513831
0.009911016
0.00735667
0.005484044
0.004512173
0.00389882
0.003351745
0.002682922
0.002004642
0.001500289
0.001149402
0.0009055186
0.0007341184
0.000612869
0.0005270864
0.0004651027
0.0004141234
0.0003581555
0.0002873895
0.0002181019
0.0002127003
0.0002908163
0.0004724693
0.0007976306
0.001344594
0.002194996
0.003137164
0.003773437
0.004233128
0.004673238
0.005509299
0.0098974
0.007356547
0.005483675
0.004511221
0.003896192
0.003343807
0.002648149
0.001989562
0.001493995
0.001146026
0.0009031932
0.0007321991
0.0006110092
0.0005250336
0.0004628483
0.0004123518
0.0003588272
0.0002926184
0.0002233181
0.0002117289
0.0002814671
0.0004542642
0.0007672669
0.001293244
0.002125427
0.003096753
0.003756794
0.004225487
0.004668892
0.00550579
0.009887082
0.007356664
0.005483955
0.004511798
0.003897231
0.003345166
0.002649475
0.001991494
0.001496082
0.001147708
0.0009042786
0.0007327039
0.0006109492
0.000524366
0.0004616598
0.0004114468
0.000360832
0.0003010251
0.0002361393
0.0002201105
0.0002826696
0.0004491645
0.00075662
0.001275013
0.002085073
0.003084869
0.003751524
0.004223097
0.004667744
0.005505115
0.009886258
0.007357003
0.005484847
0.004513818
0.003901789
0.003355693
0.002686643
0.00201027
0.001506344
0.001154236
0.0009086244
0.0007355813
0.0006127613
0.0005253265
0.0004620062
0.0004120141
0.0003639988
0.0003101206
0.0002520074
0.0002351021
0.0002937013
0.0004573041
0.0007651833
0.001289956
0.002119273
0.003097432
0.003756527
0.004225876
0.004669735
0.005507143
0.009894098
0.007357492
0.005486223
0.004517083
0.003909013
0.003369304
0.002714247
0.002032805
0.001522076
0.001164905
0.0009159237
0.0007406795
0.0006164154
0.0005280369
0.0004642357
0.0004146202
0.0003688341
0.0003198266
0.0002686025
0.0002537163
0.0003118708
0.0004767337
0.0007913266
0.001330176
0.002173277
0.003127423
0.003770146
0.004232227
0.004673217
0.005510009
0.009904356
0.007357972
0.005487792
0.00452115
0.003918423
0.003389373
0.002766832
0.002065815
0.001543808
0.001179582
0.0009260766
0.0007479284
0.0006218499
0.0005324553
0.000468355
0.0004193533
0.0003756096
0.0003306198
0.0002856279
0.0002746942
0.0003354737
0.00050564
0.0008339548
0.001400995
0.002284284
0.003177503
0.00379008
0.004239564
0.004675688
0.005511025
0.009908487
0.007358146
0.005489112
0.004525967
0.00393262
0.003425177
0.002825628
0.002117271
0.001577106
0.001200661
0.0009399401
0.0007575601
0.0006290485
0.0005384537
0.0004741662
0.0004259927
0.0003842692
0.0003428392
0.000303509
0.000297739
0.00036336
0.0005416267
0.0008888808
0.001499956
0.002456915
0.003249034
0.003812767
0.004244563
0.004674186
0.005507095
0.009897159
0.00735759
0.005489461
0.004530353
0.003948405
0.003470317
0.002944934
0.002189637
0.001619788
0.00122706
0.0009571244
0.0007693876
0.0006378406
0.0005458132
0.0004813793
0.0004342093
0.0003946029
0.0003566231
0.0003227279
0.0003228984
0.0003943525
0.0005797519
0.0009381774
0.0015659
0.002534532
0.003291821
0.003826583
0.004242876
0.004665404
0.005494848
0.009860532
0.007355633
0.005487659
0.004532084
0.003959063
0.003498891
0.002994256
0.002235169
0.001655196
0.001252799
0.0009754309
0.0007825489
0.0006477935
0.0005541906
0.0004896206
0.0004435974
0.0004062813
0.0003718949
0.0003435619
0.0003503133
0.0004282362
0.0006199226
0.0009849756
0.001618174
0.002583375
0.003319433
0.003829982
0.004230655
0.004645326
0.005469847
0.00978625
0.007351041
0.005481798
0.004529128
0.003963668
0.003517031
0.003024015
0.002270734
0.001687863
0.001278892
0.0009949444
0.0007968677
0.0006586146
0.0005632006
0.0004984239
0.0004536473
0.0004188398
0.0003883645
0.0003660178
0.0003800029
0.0004650105
0.0006627814
0.001032672
0.001667454
0.002624075
0.003335847
0.003820295
0.004203484
0.004609058
0.005426217
0.009657875
0.007341722
0.005468836
0.004518691
0.003961203
0.003529005
0.003052924
0.002321342
0.001733346
0.001313068
0.001019014
0.0008135387
0.0006704912
0.0005725606
0.0005072855
0.0004637647
0.0004316927
0.0004055529
0.0003898324
0.0004117522
0.0005045079
0.0007085426
0.001082578
0.001717303
0.002665891
0.003339716
0.003793762
0.004156569
0.004550892
0.005356131
0.00945252
0.007324453
0.005444537
0.004497404
0.003950484
0.003539113
0.003096891
0.002452086
0.001819725
0.001366907
0.00105253
0.0008345378
0.0006840303
0.0005822005
0.0005157972
0.0004733851
0.0004442285
0.0004228739
0.0004145407
0.0004451673
0.0005465035
0.0007573697
0.001135139
0.001766833
0.00269895
0.003329399
0.003748827
0.004087097
0.004465863
0.00525
0.009137776
0.00729491
0.005404916
0.00446439
0.003933562
0.003549814
0.003147025
0.00255883
0.001917392
0.00143406
0.001095335
0.0008608616
0.000699973
0.0005923778
0.000523843
0.0004821612
0.0004559694
0.0004397697
0.0004396166
0.0004799158
0.0005912906
0.0008109442
0.001194105
0.001821882
0.002729646
0.003314462
0.00369498
0.004002439
0.004356962
0.005101798
0.008672822
0.00724984
0.005354325
0.004434815
0.003933902
0.003587647
0.003232305
0.002718455
0.00204969
0.001527839
0.001155712
0.0008971599
0.0007206788
0.0006041792
0.0005318372
0.0004901318
0.0004667125
0.0004558411
0.0004646184
0.0005160371
0.0006404925
0.0008747455
0.00127223
0.001906123
0.002793874
0.003336764
0.003675823
0.003944739
0.004261061
0.004936949
0.008035588
0.007201076
0.005340593
0.004487074
0.004049121
0.003764132
0.003480214
0.003068416
0.002336241
0.001709443
0.001259886
0.0009539308
0.0007503534
0.000619436
0.0005406891
0.0004977406
0.0004765491
0.0004709116
0.0004892294
0.0005539221
0.0006973346
0.0009601331
0.001399969
0.002085793
0.003002165
0.003523123
0.003824754
0.004052137
0.004321113
0.004905146
0.007436439
0.007247748
0.005589272
0.004912939
0.004597555
0.004402051
0.004192836
0.00381698
0.002970313
0.002052264
0.001428393
0.001035938
0.0007900303
0.0006386389
0.0005508474
0.0005052012
0.0004852002
0.0004841742
0.0005122819
0.0005927572
0.000763736
0.001080274
0.00162845
0.002515149
0.003687078
0.00422673
0.004494302
0.004687798
0.00494175
0.005580226
0.008428022
0.007929461
0.006988338
0.006693403
0.006578796
0.006513851
0.006421154
0.00608127
0.004156376
0.002519303
0.001615221
0.001117217
0.0008278316
0.0006565119
0.0005586877
0.0005078431
0.0004859616
0.0004870243
0.000524182
0.0006223487
0.0008266153
0.0012166
0.001957708
0.003392554
0.005970284
0.00644932
0.006607538
0.006732385
0.006982108
0.008072059
0.01945417
0.007937254
0.006914242
0.006556606
0.006400902
0.006295788
0.00609014
0.004865226
0.003119147
0.002022338
0.001391832
0.001014265
0.0007795037
0.0006330252
0.0005448982
0.0004950064
0.0004689329
0.0004642264
0.0004969841
0.0005907427
0.0007856102
0.001150928
0.001825246
0.003114789
0.005741243
0.00624392
0.006433707
0.006590741
0.006868672
0.0079611
0.02010018
0.007201227
0.005340724
0.004486824
0.004047495
0.003758127
0.003460073
0.002994606
0.002292761
0.001683931
0.00124554
0.0009462342
0.0007462628
0.0006167753
0.0005375173
0.000492111
0.0004672668
0.000459891
0.0004827015
0.0005574267
0.0007162575
0.001002682
0.001474827
0.002184681
0.003069482
0.003560716
0.003845458
0.004064785
0.004329911
0.00491237
0.007449184
0.007134149
0.005019265
0.003921391
0.003308965
0.002910942
0.002579999
0.002230323
0.001812073
0.00142293
0.001110623
0.0008778526
0.0007122147
0.0005998144
0.0005279225
0.0004840577
0.000457006
0.0004442425
0.0004566562
0.000514719
0.0006419266
0.0008623391
0.001197642
0.001645869
0.002139463
0.002520848
0.00278437
0.002983145
0.003169689
0.003433987
0.004242987
0.007177766
0.005012664
0.003819693
0.003119852
0.002656662
0.002292047
0.00194584
0.001594455
0.001281092
0.001026232
0.0008307116
0.0006872352
0.0005867548
0.000519856
0.0004762231
0.0004460236
0.0004272267
0.0004293986
0.0004735298
0.000578432
0.0007596813
0.001029802
0.001386774
0.001790902
0.00213765
0.002398187
0.002602763
0.002790921
0.003042186
0.003794763
0.007221503
0.005058989
0.003834384
0.00309467
0.002593641
0.002201008
0.001836333
0.001498033
0.001209486
0.0009785645
0.0008014682
0.000670342
0.0005768992
0.0005126796
0.0004682282
0.0004343582
0.0004092048
0.0004013832
0.0004342012
0.0005249091
0.0006864822
0.0009312058
0.001263727
0.001658632
0.002017672
0.002302081
0.002537335
0.002765996
0.003091894
0.004079522
0.00725032
0.005097607
0.003862917
0.003104707
0.002581365
0.002168919
0.001785353
0.001447733
0.00116905
0.0009495553
0.000782143
0.0006579195
0.0005684533
0.0005054241
0.000459567
0.0004217767
0.0003900026
0.0003723028
0.0003957646
0.0004775479
0.0006299429
0.0008666018
0.001197677
0.001605518
0.001993459
0.002311029
0.00258055
0.002847716
0.003237321
0.004443755
0.00726689
0.00512117
0.003882457
0.003114322
0.002576941
0.002152583
0.001757643
0.001417716
0.00114298
0.0009294347
0.0007675401
0.0006474102
0.0005602853
0.0004977266
0.0004503023
0.0004085112
0.000369789
0.0003421722
0.0003577774
0.0004337906
0.0005817723
0.0008162589
0.001151261
0.00157426
0.001992569
0.002341965
0.002640395
0.002934721
0.003364061
0.004727644
0.007275524
0.005133332
0.003891932
0.003117164
0.002570392
0.002138398
0.001737343
0.001395912
0.001123348
0.0009134236
0.0007550702
0.0006376622
0.000552134
0.0004898546
0.0004409905
0.0003951396
0.0003489221
0.0003112732
0.0003204211
0.0003926596
0.0005381144
0.0007714842
0.001109317
0.00154218
0.001987789
0.002364794
0.002686375
0.00299935
0.003452283
0.004920479
0.007279469
0.0051384
0.003894348
0.003113848
0.002559853
0.002120006
0.001715672
0.001375004
0.001105357
0.0008988602
0.0007435429
0.0006284107
0.000544283
0.000482405
0.00043239
0.00038233
0.0003277717
0.000280141
0.0002843081
0.0003540694
0.000497585
0.0007294737
0.001068441
0.001508677
0.001972759
0.002372777
0.002713207
0.003039807
0.003507136
0.005041
0.00728082
0.005139486
0.00389255
0.003106019
0.002543874
0.00209275
0.001688403
0.001352161
0.001087437
0.0008850719
0.0007328653
0.000619911
0.0005371706
0.0004758815
0.0004250199
0.0003705312
0.0003067623
0.0002498869
0.0002504225
0.0003182214
0.0004595815
0.0006891401
0.001027417
0.001471701
0.00194818
0.002367422
0.002723569
0.00306077
0.003537135
0.005108217
0.007280836
0.005138625
0.00388908
0.003097489
0.002528771
0.002068085
0.00166428
0.001332145
0.001071832
0.0008731073
0.0007236033
0.0006125352
0.0005310258
0.0004703084
0.0004187476
0.0003599085
0.000287068
0.0002227201
0.0002201698
0.0002854484
0.0004237111
0.0006497998
0.0009857905
0.00143207
0.001916821
0.002352223
0.002721799
0.003067587
0.003549608
0.005137329
0.007280275
0.005137049
0.003885479
0.003090441
0.002518006
0.002052607
0.001647993
0.001317617
0.001059927
0.0008636783
0.0007161255
0.0006064391
0.000525787
0.0004653555
0.000413135
0.0003510155
0.0002715171
0.0002015377
0.0001952708
0.0002563818
0.0003898747
0.0006106216
0.0009416125
0.001386988
0.00187956
0.00233048
0.002712081
0.003065012
0.003550403
0.005140303
0.007279602
0.005135486
0.003882436
0.003085084
0.002510299
0.002041389
0.001636537
0.001307277
0.00105131
0.0008567285
0.000710469
0.0006016319
0.0005214133
0.0004610499
0.0004085566
0.0003452858
0.0002629703
0.0001888078
0.0001774382
0.0002323
0.0003590717
0.0005720166
0.0008936135
0.001332863
0.001836659
0.002305103
0.002698389
0.003057359
0.003544551
0.005127855
0.007279092
0.005134367
0.003880384
0.003081605
0.002505483
0.002034596
0.0016295
0.001300928
0.001045961
0.0008522994
0.000706687
0.0005981588
0.0005179578
0.0004575543
0.0004054622
0.0003435571
0.0002628056
0.0001859569
0.0001682915
0.0002153692
0.0003344084
0.00053896
0.0008498671
0.0012798
0.00179638
0.002281549
0.002684908
0.003048626
0.00353663
0.005110159
0.007278891
0.005133926
0.003879568
0.003080141
0.002503174
0.002029795
0.001625785
0.00129823
0.001043822
0.0008504297
0.0007048598
0.0005961209
0.0005154787
0.0004547045
0.0004032153
0.000344897
0.0002704512
0.0001934268
0.0001690896
0.0002079679
0.0003197358
0.0005178676
0.0008220448
0.00124735
0.001770113
0.002265793
0.002675629
0.003042395
0.003530834
0.005097288
0.007279053
0.005134251
0.003880103
0.003080978
0.002504236
0.00203107
0.001627267
0.001299669
0.00104497
0.0008511651
0.0007051076
0.0005957492
0.0005142801
0.0004526157
0.0004010897
0.0003467819
0.0002811635
0.0002093753
0.0001797428
0.0002114193
0.000317501
0.000511894
0.000813342
0.001236932
0.001761926
0.002260796
0.002672951
0.003040972
0.003530013
0.005096814
0.007279566
0.005135311
0.003881929
0.003084021
0.002508568
0.002038289
0.001633789
0.001305064
0.001049246
0.0008544118
0.0007074396
0.0005972137
0.0005148023
0.0004521704
0.0004004614
0.0003493509
0.0002914828
0.000227711
0.0001969352
0.0002246437
0.0003277152
0.0005211753
0.0008232305
0.001247998
0.001770444
0.00226633
0.002676861
0.003044258
0.003533894
0.0051075
0.007280351
0.00513697
0.003884871
0.003088989
0.002515526
0.002048363
0.001644042
0.001313932
0.001056381
0.0008599918
0.0007117643
0.0006005375
0.0005172894
0.0004540338
0.0004024926
0.0003538686
0.0003017727
0.0002456989
0.0002169937
0.0002441182
0.0003472142
0.0005429048
0.00084905
0.001276424
0.001793406
0.002280449
0.002685293
0.003050012
0.003539608
0.005121938
0.007281239
0.005138955
0.003888597
0.003095527
0.002525165
0.002062665
0.001658184
0.001326127
0.001066255
0.0008678158
0.0007179954
0.0006056324
0.0005216683
0.0004581751
0.000407218
0.0003607399
0.0003129757
0.0002633858
0.0002386499
0.0002678928
0.0003736453
0.0005744659
0.0008883542
0.001320968
0.001827475
0.00229983
0.00269504
0.003054939
0.003543172
0.005130597
0.007281945
0.005140832
0.003892809