/*--------------------------------*- C++ -*----------------------------------*\
| =========                 |                                                 |
| \\      /  F ield         | OpenFOAM: The Open Source CFD Toolbox           |
|  \\    /   O peration     | Version:  2506                                  |
|   \\  /    A nd           | Website:  www.openfoam.com                      |
|    \\/     M anipulation  |                                                 |
\*---------------------------------------------------------------------------*/
FoamFile
{
    version     2.0;
    format      ascii;
    arch        "LSB;label=32;scalar=64";
    class       surfaceScalarField;
    location    "200/airRegion";
    object      phi;
}
// * * * * * * * * * * * * * * * * * * * * * * * * * * * * * * * * * * * * * //

dimensions      [1 0 -1 0 0 0 0];

oriented        oriented;

internalField   nonuniform List<scalar> 
257196
(
0.01086468
0.0007372965
0.0007367525
0.01059633
0.001095161
0.001093436
0.01029156
0.001154254
0.001150925
0.01008832
0.001153535
0.001147451
0.01018019
0.001224912
0.00121391
0.01093081
0.001418291
0.001378621
0.01361628
0.001148008
0.00105715
0.02266238
-0.003405226
-0.002653153
0.03705233
-0.0091549
-0.008481249
0.04690609
-0.01362706
-0.0130619
0.05224359
-0.02053046
-0.01985177
0.05329247
-0.0293388
-0.02850371
0.04986116
-0.03974565
-0.03873812
0.04188358
-0.05107961
-0.04987169
0.02972506
-0.06194175
-0.06051004
0.01438601
-0.07010238
-0.06847244
-0.002287523
-0.072639
-0.07095754
-0.01696431
-0.06649455
-0.06502607
-0.02667734
-0.05354508
-0.05244977
-0.03008393
-0.03787423
-0.03717316
-0.02682755
-0.02339264
-0.02302131
-0.01759682
-0.01271363
-0.01246245
-0.01089507
-0.00321834
-0.002839476
-0.008842669
0.001816928
0.001744098
-0.008136572
0.002900759
0.002872868
-0.007838539
0.003760145
0.003733304
-0.007536503
0.004681193
0.004653588
-0.006789509
0.005605
0.005582082
-0.004698903
0.005899591
0.005881806
0.0004525551
0.0004380096
0.01967241
0.0006538605
0.002278963
0.01952828
0.001068898
0.00336762
0.01934434
0.001176938
0.00345197
0.01934742
0.001176435
0.003117067
0.01989175
0.001202414
0.002463136
0.02170614
0.00126745
0.001103875
0.02676802
-9.614451e-05
-0.002328768
0.03554159
-0.005544021
-0.00663677
0.04462005
-0.011498
-0.01042988
0.0517659
-0.01614191
-0.01548484
0.05552492
-0.021905
-0.02277319
0.05547876
-0.02914538
-0.03193034
0.05126966
-0.03773038
-0.04260083
0.04275983
-0.04713014
-0.05404578
0.03027104
-0.05618901
-0.06487138
0.01476264
-0.0629929
-0.07293103
-0.001988499
-0.06499807
-0.07544528
-0.0169229
-0.05959468
-0.06937152
-0.02731047
-0.04853208
-0.05641226
-0.03192823
-0.03528787
-0.04047574
-0.03090572
-0.0229986
-0.02540735
-0.02614099
-0.01313178
-0.01374542
-0.0200887
-0.004398876
-0.005116003
-0.01623622
0.0008956071
0.001682194
-0.01449094
0.002394969
0.006866665
-0.01348851
0.003450261
0.01026774
-0.01242398
0.004398315
0.01338164
-0.01043872
0.005170553
0.01701487
-0.005487549
0.005138291
0.02186188
0.0002043029
0.02917712
0.0236463
0.0004978506
0.003618387
0.02367084
0.0008837024
0.005463228
0.02375406
0.001025784
0.005589939
0.02418768
0.001060971
0.004846475
0.02547826
0.001161674
0.003268629
0.02847519
0.001398179
0.0003238663
0.03560529
-0.001533247
-0.005634619
0.0456141
-0.007142313
-0.009789186
0.05293578
-0.01196407
-0.01262318
0.05781479
-0.01650545
-0.01845721
0.05981913
-0.02169552
-0.02649234
0.05842726
-0.02790733
-0.03631881
0.05321981
-0.03514973
-0.04752458
0.04402451
-0.04304197
-0.05932961
0.03110859
-0.05064978
-0.07035434
0.01535217
-0.05634505
-0.0785007
-0.001602863
-0.05790707
-0.08101212
-0.01688949
-0.05305472
-0.07475582
-0.0279628
-0.04341119
-0.06139447
-0.0337197
-0.03195388
-0.044751
-0.0343072
-0.02122558
-0.02861645
-0.03076839
-0.01227755
-0.01554813
-0.02414311
-0.004746271
-0.006514072
-0.01920305
0.0002055359
0.002134094
-0.01662799
0.001907248
0.01068307
-0.01488253
0.003021045
0.01675709
-0.0129466
0.003912446
0.02237784
-0.009807199
0.004520265
0.02894954
-0.003177319
0.004373767
0.03756998
0.0009829156
0.0497311
0.02552943
0.0003441449
0.004638706
0.02562982
0.0006525263
0.007160765
0.02593325
0.0007939151
0.007356744
0.02683473
0.0008446483
0.006219081
0.02930144
0.0008790847
0.003643113
0.03512068
0.0007100889
-0.001640835
0.04419262
-0.002078122
-0.007953241
0.05283369
-0.007149107
-0.01134812
0.05917652
-0.01155215
-0.01527264
0.06289071
-0.01578883
-0.02181783
0.06371595
-0.02047983
-0.03049476
0.06126594
-0.02591994
-0.04090449
0.05519557
-0.03214082
-0.05256017
0.04536872
-0.03886074
-0.06464732
0.03203913
-0.04532171
-0.075816
0.01602638
-0.05013348
-0.08402359
-0.001149341
-0.05133512
-0.08652979
-0.01674792
-0.0468978
-0.08011599
-0.02830401
-0.03836483
-0.06643939
-0.03471031
-0.02832633
-0.04921699
-0.03593434
-0.01892056
-0.03213203
-0.03250353
-0.01105518
-0.01779693
-0.02536597
-0.004686147
-0.007565805
-0.01982611
-0.000217063
0.003022937
-0.01669513
0.001460712
0.01425469
-0.01439248
0.002509068
0.02276131
-0.0119022
0.003282396
0.03069232
-0.008300333
0.003733256
0.03960165
-0.001321751
0.003534645
0.05037125
0.00108182
0.06346052
0.02645058
0.0002229188
0.005344398
0.02656442
0.0004459675
0.008394253
0.02700371
0.0005662391
0.008663979
0.02824346
0.0006250961
0.007190461
0.0313234
0.0006769238
0.003793189
0.03799323
0.0005212415
-0.003001935
0.04827062
-0.002708554
-0.009731114
0.05736572
-0.007321063
-0.01340793
0.06349845
-0.01094159
-0.01804992
0.06664702
-0.01462389
-0.02525245
0.06675406
-0.01876871
-0.03450742
0.06357588
-0.02352549
-0.04538209
0.05687209
-0.02889735
-0.05735204
0.04656259
-0.03465662
-0.06960094
0.03290564
-0.04018068
-0.08083123
0.016677
-0.0442718
-0.08906244
-0.0006927021
-0.04517914
-0.09156119
-0.0165075
-0.04109725
-0.08503625
-0.02830336
-0.03353833
-0.07118249
-0.03493701
-0.02477437
-0.05360708
-0.03626141
-0.01661645
-0.03581907
-0.03265689
-0.009849841
-0.02037069
-0.02518892
-0.004477079
-0.008692122
-0.0193379
-0.0004819506
0.003795311
-0.01587572
0.001049275
0.01721264
-0.0132489
0.001964566
0.02778377
-0.0105159
0.002598378
0.03760075
-0.00687048
0.002922613
0.04814021
-3.204335e-05
0.002711379
0.06000094
0.0009228649
0.07275038
0.02691512
0.0001376182
0.00579738
0.02702566
0.0002866266
0.009212596
0.02756671
0.0003733938
0.009531262
0.02912227
0.0004060015
0.007765074
0.03294975
0.0003578785
0.003583302
0.04104846
-9.534292e-05
-0.004900026
0.05255859
-0.002890422
-0.01140623
0.06109406
-0.006568866
-0.01461222
0.06664366
-0.009853622
-0.02048682
0.06929268
-0.01315687
-0.02852026
0.0688893
-0.01681241
-0.03834285
0.06521409
-0.02095462
-0.04959413
0.05808212
-0.02558379
-0.0617668
0.0474515
-0.03051677
-0.07407897
0.03357966
-0.0352419
-0.08530661
0.01720346
-0.03872293
-0.0935319
-0.0003073173
-0.03938767
-0.09601295
-0.01623662
-0.03565477
-0.08940755
-0.028085
-0.02903546
-0.07549962
-0.03469391
-0.02150565
-0.0577858
-0.03589674
-0.01455952
-0.03954868
-0.03209637
-0.008825089
-0.02319172
-0.02445708
-0.004264063
-0.01015273
-0.01848464
-0.0006644443
0.004059725
-0.01483558
0.0006726554
0.01926771
-0.01204862
0.001434466
0.03154921
-0.009260582
0.00193662
0.04284831
-0.005742609
0.002170102
0.05451032
0.0008160858
0.001987145
0.06694709
0.000714407
0.07901828
0.02715528
8.285857e-05
0.006068531
0.02725747
0.0001796907
0.009708122
0.02785406
0.0002424682
0.01003667
0.02957654
0.0002640986
0.008021199
0.03369313
0.0001739686
0.003255422
0.04218299
-0.0005273515
-0.006205766
0.05427363
-0.00306525
-0.01306712
0.06305683
-0.005966924
-0.01650847
0.06848838
-0.008765671
-0.02302262
0.07089012
-0.01164464
-0.03165669
0.0701799
-0.01481333
-0.04193174
0.06619329
-0.01837237
-0.05346423
0.05879872
-0.02232071
-0.06575283
0.04798334
-0.0265111
-0.07806243
0.03399614
-0.03052534
-0.08925323
0.01753302
-0.03346839
-0.09745995
-7.227064e-05
-0.03393252
-0.09990564
-0.01603798
-0.03057651
-0.09322253
-0.02781705
-0.02491464
-0.07935637
-0.03427196
-0.01861115
-0.06169346
-0.03528722
-0.01283031
-0.04324941
-0.03134103
-0.008024574
-0.02622999
-0.0236387
-0.004106611
-0.0120608
-0.01765099
-0.0008063146
0.003649416
-0.0138917
0.0003384366
0.0203381
-0.01103232
0.0009557251
0.03404285
-0.008272986
0.00134742
0.04651749
-0.004928461
0.001521514
0.05899219
0.00136397
0.001382864
0.07177443
0.0005213623
0.0832392
0.02728726
5.138319e-05
0.006218745
0.02738836
0.0001199106
0.00997641
0.02802239
0.0001838088
0.01027668
0.02982992
0.0002502288
0.008037548
0.034046
0.0002440174
0.002818998
0.04267791
-0.0007490451
-0.007320005
0.05505511
-0.003311273
-0.01466727
0.06404105
-0.00561205
-0.01851415
0.06946878
-0.007844286
-0.0255136
0.07173548
-0.01022603
-0.03459655
0.07083067
-0.01288133
-0.04520958
0.06664742
-0.01586637
-0.05693709
0.05909785
-0.01916924
-0.06928115
0.04818866
-0.02266904
-0.08155703
0.03414961
-0.0260257
-0.09270839
0.01762959
-0.02847521
-0.100901
-5.089065e-05
-0.0287767
-0.1032886
-0.01600413
-0.02585661
-0.09650887
-0.02764148
-0.02119488
-0.08276423
-0.03388369
-0.01610934
-0.06531508
-0.03470573
-0.01142697
-0.04687723
-0.03066259
-0.007435596
-0.02943557
-0.02294816
-0.004020174
-0.01439351
-0.01700675
-0.0009197834
0.002605886
-0.0131651
5.750486e-05
0.02051806
-0.01026645
0.00055254
0.03542415
-0.00755632
0.0008569905
0.04885359
-0.004372277
0.0009940475
0.06195669
0.001681835
0.0009100982
0.07499365
0.0003486579
0.08600792
0.02737669
3.437767e-05
0.006294187
0.02750257
9.073937e-05
0.01009906
0.02821477
0.0001743137
0.01033808
0.03016491
0.0003480992
0.007855306
0.03450275
0.0006265186
0.002207331
0.04338037
-0.0009343501
-0.008290482
0.05590995
-0.003732556
-0.01597149
0.06482988
-0.005351611
-0.02025651
0.07011905
-0.00698954
-0.02771213
0.07220619
-0.008861642
-0.03717956
0.07111277
-0.01100571
-0.04807186
0.06676643
-0.01343558
-0.05995207
0.05910605
-0.01612584
-0.07232998
0.04814265
-0.01897244
-0.08457485
0.03407417
-0.02170266
-0.09571035
0.01749406
-0.02368445
-0.1039054
-0.0002652182
-0.02386834
-0.1062078
-0.01617805
-0.02147477
-0.09931651
-0.0276401
-0.01785922
-0.08577153
-0.03365819
-0.01396387
-0.0686678
-0.03430705
-0.01029605
-0.0503953
-0.03019812
-0.007013605
-0.03272205
-0.02246575
-0.004008166
-0.01703455
-0.01661204
-0.001062101
0.001161961
-0.01267959
-0.0001645889
0.02000119
-0.009743211
0.0002377728
0.03593032
-0.007070825
0.0004737276
0.05014873
-0.004007325
0.0005854318
0.06376015
0.001885878
0.0005475763
0.07700798
0.0002108908
0.0877441
0.02745899
2.211163e-05
0.006326765
0.02765649
6.254727e-05
0.01013742
0.02858712
0.0001286046
0.01028766
0.03112801
0.00029669
0.007463028
0.0365721
0.0006607817
0.001234138
0.0461657
-0.00127632
-0.009044065
0.05775167
-0.003496407
-0.01635012
0.06595177
-0.004666108
-0.02143657
0.07079019
-0.005925319
-0.02943902
0.07256169
-0.007410763
-0.03930194
0.07122675
-0.009108966
-0.05045745
0.06670605
-0.01103121
-0.06247904
0.05893968
-0.0131495
-0.07489434
0.04792779
-0.0153751
-0.08712865
0.03382617
-0.01749603
-0.09827996
0.01716843
-0.01902636
-0.1064935
-0.0006741887
-0.01915674
-0.1086849
-0.01653241
-0.0173962
-0.1017114
-0.02782622
-0.0148483
-0.08845661
-0.03365413
-0.01208313
-0.07179124
-0.03417233
-0.009337319
-0.05376964
-0.0300197
-0.006685661
-0.03597682
-0.02227957
-0.004041365
-0.01979648
-0.01643379
-0.001216998
-0.0007084825
-0.01241113
-0.000307462
0.01902388
-0.009427211
2.028995e-05
0.03581167
-0.00677026
0.0001971076
0.05068252
-0.003784689
0.0002866888
0.06471177
0.002005392
0.0002813024
0.07814472
0.0001074329
0.08873866
0.02752111
1.249438e-05
0.006334675
0.02778093
3.488824e-05
0.01012722
0.02887641
6.746292e-05
0.01019067
0.03199698
0.0001073032
0.007061579
0.03913611
6.31657e-05
-0.0002663552
0.04962042
-0.0007857607
-0.009883683
0.05943351
-0.002319432
-0.01617566
0.06682124
-0.00357987
-0.02238594
0.07129086
-0.004699832
-0.0308557
0.07278289
-0.005869712
-0.04101369
0.0712289
-0.007172523
-0.05238441
0.06654811
-0.008626516
-0.06452626
0.05868253
-0.0102054
-0.07697969
0.04762244
-0.01183355
-0.08921748
0.03348466
-0.01335557
-0.1003965
0.01674727
-0.01444936
-0.1086283
-0.001167327
-0.01460137
-0.1107166
-0.01697403
-0.0135618
-0.1037625
-0.02815463
-0.01205197
-0.09090238
-0.0338769
-0.01031819
-0.07472289
-0.03433643
-0.008402542
-0.05695818
-0.03016569
-0.006347675
-0.03907207
-0.02244062
-0.004064064
-0.02247256
-0.0164329
-0.001261788
-0.003001254
-0.01232739
-0.000331039
0.01781437
-0.009279832
-9.23001e-05
0.03529769
-0.00661354
2.313046e-05
0.05069968
-0.003667523
8.69747e-05
0.06506829
0.002063979
9.917285e-05
0.07866203
3.505698e-05
0.08920748
0.02755923
6.454325e-06
0.006329802
0.02785128
1.68764e-05
0.01009349
0.02901178
2.828695e-05
0.01007987
0.03223158
-2.536978e-05
0.006778459
0.03944591
-0.0003657848
-0.000796953
0.05006115
-0.0002273075
-0.01059003
0.05996168
-0.001229013
-0.0169065
0.06725919
-0.002499023
-0.02328416
0.07156792
-0.0034393
-0.03198046
0.0728827
-0.004291377
-0.04234255
0.07116796
-0.005214648
-0.05386525
0.06636131
-0.006220694
-0.06609334
0.05841532
-0.00728178
-0.07857253
0.04731722
-0.008331924
-0.0908043
0.03315707
-0.009268624
-0.1019852
0.01636994
-0.009943223
-0.11022
-0.001586488
-0.01016998
-0.1122875
-0.01737229
-0.009879197
-0.1055254
-0.02854471
-0.009315562
-0.09315578
-0.03429783
-0.00847332
-0.07745842
-0.03481787
-0.007289104
-0.05988497
-0.03070123
-0.005829709
-0.04184801
-0.0229141
-0.004036073
-0.02485733
-0.0166927
-0.001304048
-0.004944339
-0.01242413
-0.0002235223
0.01651688
-0.009276078
-0.0001042026
0.03457275
-0.006568391
-5.981012e-05
0.05040294
-0.003627596
-2.579172e-05
0.06503894
0.00207931
-8.720938e-06
0.07876526
-8.882434e-06
0.08931811
0.02758332
3.256008e-06
0.006320922
0.02789161
8.746013e-06
0.01005627
0.0290716
1.567514e-05
0.009978159
0.03204247
1.558578e-05
0.006599894
0.03798589
-5.278417e-05
-0.000411272
0.04806392
-0.0003903263
-0.01099053
0.05974083
-0.001072811
-0.01832584
0.06748017
-0.001646905
-0.02399905
0.07173582
-0.002171214
-0.03274806
0.07294033
-0.002695322
-0.04326156
0.07111213
-0.003248005
-0.0548853
0.06621639
-0.003825174
-0.06716446
0.05821825
-0.004391222
-0.0796462
0.04710741
-0.004885763
-0.09184698
0.03296134
-0.005255337
-0.1029914
0.01618513
-0.005521425
-0.1112198
-0.001773493
-0.005828286
-0.113388
-0.01759364
-0.00623933
-0.1070069
-0.0288936
-0.006481101
-0.09518421
-0.03485219
-0.006351055
-0.07991785
-0.03562442
-0.005755332
-0.0624172
-0.03179322
-0.004826635
-0.04408458
-0.02416482
-0.003593926
-0.02658476
-0.01754958
-0.001286814
-0.006461519
-0.01278901
-9.759815e-05
0.01515429
-0.009415509
-7.364666e-05
0.03376251
-0.006610092
-8.174882e-05
0.04995898
-0.003641547
-6.875631e-05
0.06480022
0.00206693
-5.391113e-05
0.07862839
-2.734632e-05
0.08921533
0.02759776
1.412314e-06
0.006313411
0.0279191
4.626937e-06
0.01002802
0.02912421
1.200742e-05
0.009907858
0.03212335
8.174152e-05
0.006451488
0.03810281
0.0003308841
-0.0007270593
0.04823067
-0.0005988744
-0.01127679
0.05994295
-0.0009760496
-0.01865281
0.06764685
-0.0007909949
-0.02438523
0.07184417
-0.0008966105
-0.03320883
0.07297926
-0.001096718
-0.0437909
0.07108768
-0.001293676
-0.05545914
0.06614846
-0.001464787
-0.06774861
0.0581383
-0.00156457
-0.08020171
0.04705687
-0.001534489
-0.09233686
0.03298627
-0.001362377
-0.1033994
0.01631716
-0.001223904
-0.1116112
-0.001579331
-0.001559406
-0.114004
-0.01747774
-0.00255653
-0.1081706
-0.02901374
-0.003454001
-0.09690672
-0.03530046
-0.003866385
-0.08200048
-0.03642801
-0.003723426
-0.06449306
-0.0330147
-0.003245764
-0.04580659
-0.02574044
-0.002644207
-0.02766362
-0.01861025
-0.001232009
-0.007580984
-0.01325339
8.797847e-05
0.01385453
-0.009602459
-2.262107e-05
0.03302754
-0.00668442
-6.168619e-05
0.04951644
-0.003676683
-5.686282e-05
0.06450482
0.002044328
-4.673036e-05
0.07840488
-2.212021e-05
0.089031
0.02760433
-3.673565e-07
0.006310346
0.02793711
-1.28191e-06
0.01001667
0.02917937
-2.47628e-06
0.009882988
0.0325288
-7.894396e-07
0.006346858
0.03986021
1.797793e-05
-0.001543207
0.05060648
6.548935e-05
-0.01149942
0.06054152
0.0001635106
-0.01789812
0.06776363
0.0002764628
-0.02444919
0.07189205
0.0003774793
-0.03338578
0.072996
0.0004831733
-0.04396377
0.07108923
0.0006231858
-0.05562489
0.06614913
0.000834129
-0.06788804
0.05816402
0.001166715
-0.08028571
0.04715715
0.001675227
-0.09232162
0.03324567
0.002335481
-0.1032476
0.01683245
0.002852554
-0.1114121
-0.0008784017
0.002589345
-0.114117
-0.01686594
0.001204898
-0.1089536
-0.02871294
-0.0002073268
-0.09821461
-0.03539553
-0.001055896
-0.08356856
-0.03689944
-0.001292195
-0.066008
-0.03405368
-0.001121668
-0.04697163
-0.02802642
-0.0006996867
-0.02788562
-0.02019419
-0.0003136733
-0.008449875
-0.01374153
-0.0001262522
0.01261906
-0.00974224
-4.119033e-05
0.03251372
-0.006741596
-1.938532e-05
0.04921237
-0.003704083
-1.301632e-05
0.06428985
0.002027668
-7.995934e-06
0.07823459
-1.459836e-06
0.08889027
0.02760132
-2.248358e-06
0.006312875
0.02793093
-7.704447e-06
0.01002461
0.02916785
-1.850827e-05
0.009900458
0.03251389
-9.188566e-05
0.006378489
0.03984664
-0.0003094496
-0.001497848
0.05058301
0.0007314555
-0.01142678
0.06050271
0.001292909
-0.01781312
0.06771366
0.001336789
-0.02435696
0.07185513
0.001621506
-0.033268
0.07298269
0.002018913
-0.04380526
0.07110336
0.002482932
-0.0554205
0.06619498
0.003057305
-0.06763434
0.05825814
0.003791156
-0.07996567
0.04734889
0.004725897
-0.09188517
0.03364373
0.005798447
-0.1026288
0.0175881
0.006636181
-0.1106931
0.0002162154
0.006522101
-0.1136991
-0.01578415
0.004992857
-0.1092781
-0.02793329
0.003193454
-0.09900679
-0.03500998
0.001944807
-0.08448042
-0.03678652
0.001296678
-0.06679955
-0.03394924
0.001021291
-0.04757702
-0.02755028
0.0009476291
-0.02852994
-0.01988817
0.0005800627
-0.008739363
-0.01368564
-0.0001041379
0.01260474
-0.009750172
4.667318e-06
0.03240668
-0.006749435
3.290161e-05
0.04913882
-0.003707219
3.093105e-05
0.06424864
0.002026982
2.860486e-05
0.07821288
1.737795e-05
0.08888271
0.0275888
-4.528492e-06
0.006320707
0.02790147
-1.417465e-05
0.01005065
0.02909606
-3.140491e-05
0.009956724
0.03209526
-5.481096e-05
0.006537113
0.03810057
-8.837579e-06
-0.0005812398
0.04822595
0.0005153577
-0.01106589
0.05983406
0.001491664
-0.01839128
0.0675111
0.002188814
-0.02410516
0.07174298
0.002821897
-0.03285946
0.07294315
0.003499665
-0.04333201
0.07112721
0.00428212
-0.05487436
0.06627674
0.00521049
-0.06702768
0.05840015
0.006327052
-0.07929713
0.04758289
0.007650699
-0.09110989
0.03405812
0.009076159
-0.1016699
0.01831851
0.0101869
-0.1096038
0.001318042
0.01024965
-0.1128327
-0.01455982
0.008715579
-0.1090846
-0.02690998
0.006632909
-0.09916973
-0.03430243
0.004963488
-0.08465355
-0.03630921
0.003839535
-0.0668001
-0.03339736
0.003010993
-0.0474345
-0.02621641
0.00212233
-0.02870561
-0.01897674
0.0008172341
-0.008385633
-0.01345061
0.0001633265
0.01320432
-0.00970007
7.513736e-05
0.03261849
-0.006724703
5.213979e-05
0.04928526
-0.003690535
3.883828e-05
0.0643727
0.002040226
3.151221e-05
0.07832872
1.984042e-05
0.0889944
0.02756573
-8.060116e-06
0.006332171
0.02785347
-2.435017e-05
0.01009026
0.02899333
-5.227979e-05
0.01005276
0.03191343
-5.53286e-05
0.006750577
0.0378575
0.0001693649
-0.0001667347
0.04786934
0.0003641958
-0.01068783
0.05944643
0.001775783
-0.01799243
0.06721101
0.003025136
-0.02358829
0.07156014
0.003973847
-0.03219938
0.07287488
0.004929006
-0.04254155
0.07116042
0.006031657
-0.05398613
0.06639124
0.007317108
-0.06607516
0.058579
0.00881506
-0.07829925
0.04783159
0.01051605
-0.09004537
0.03443013
0.01226991
-0.1004802
0.01891904
0.01362944
-0.1083116
0.002236384
0.01386302
-0.1116789
-0.01348459
0.01237448
-0.1084106
-0.02591533
0.0100342
-0.09873859
-0.0334815
0.007868386
-0.08417453
-0.03561344
0.006164382
-0.06616992
-0.03275786
0.004745084
-0.04673644
-0.02569823
0.003136826
-0.0280466
-0.01867416
0.001014804
-0.007747911
-0.01328271
0.0003146853
0.01382531
-0.009616037
7.708474e-05
0.03305127
-0.006685624
1.363277e-05
0.04956701
-0.003667562
-1.069805e-05
0.06456843
0.002058045
-1.687739e-05
0.07848515
-1.036738e-06
0.08913545
0.02753407
-1.456253e-05
0.006344157
0.02779367
-4.50393e-05
0.01013601
0.02888347
-0.0001040655
0.01017213
0.03200342
-0.0002874167
0.006976375
0.03921926
-0.0007149478
-0.0003653523
0.04962807
0.001174946
-0.01023982
0.0594584
0.003313369
-0.01657937
0.06687525
0.004155399
-0.02272722
0.07133411
0.005120821
-0.03124369
0.0727859
0.006333827
-0.04141628
0.07119927
0.00775634
-0.05274593
0.06652907
0.009408894
-0.06476934
0.05878143
0.01130319
-0.07696838
0.04807696
0.01339526
-0.0886957
0.03473272
0.01548747
-0.09907816
0.0193443
0.01709823
-0.1068566
0.002868272
0.01748865
-0.1103004
-0.01270655
0.0160199
-0.107314
-0.02512568
0.01337912
-0.09776075
-0.03273688
0.01061022
-0.0831054
-0.03487816
0.008198916
-0.06498178
-0.03214986
0.00622273
-0.04554464
-0.02601968
0.004431443
-0.02665072
-0.01894898
0.001644516
-0.006817481
-0.01318913
-7.279507e-05
0.01444354
-0.009528156
-6.360364e-05
0.03359584
-0.006661542
-9.069048e-05
0.04986224
-0.003660444
-0.0001273028
0.06470691
0.002066833
-0.000125176
0.07855156
-4.471434e-05
0.0891885
0.02748247
-2.210539e-05
0.006350783
0.02767926
-6.264864e-05
0.0101747
0.02859948
-0.0001313861
0.01029814
0.0310133
-0.0002686059
0.007422266
0.03608763
-0.0004395769
0.001233684
0.04554624
0.000825542
-0.009371888
0.05766596
0.003274117
-0.01713224
0.06607089
0.004740924
-0.02200415
0.07090092
0.006116912
-0.03004666
0.07260315
0.007664738
-0.03998698
0.07119987
0.00945251
-0.05115844
0.06665576
0.01150863
-0.06310066
0.05897717
0.01383554
-0.07528789
0.04829186
0.01635736
-0.08703957
0.03494516
0.01882569
-0.09743698
0.01958131
0.02071223
-0.1052128
0.003196433
0.02124636
-0.1086932
-0.01227839
0.01973155
-0.1058201
-0.02463659
0.01669875
-0.09625994
-0.03218007
0.01319137
-0.08146583
-0.03413686
0.009896047
-0.06325138
-0.03081768
0.007057668
-0.0440201
-0.02330143
0.004423913
-0.02601145
-0.01691925
0.001337685
-0.005503253
-0.01264181
0.0001774928
0.01606366
-0.009439028
-0.0001009791
0.03421855
-0.006682795
-0.0002411107
0.05003632
-0.003695517
-0.0003138541
0.06464665
0.00205017
-0.0002990881
0.07838144
-0.0001138438
0.08902716
0.02741639
-3.155124e-05
0.006344004
0.02754489
-7.799559e-05
0.0101883
0.02827937
-0.0001300043
0.01040656
0.03028653
-0.0001876052
0.007819355
0.03475491
-0.0001658433
0.002048746
0.04366631
0.000738154
-0.008717459
0.05619117
0.00305429
-0.01659743
0.06509873
0.005051472
-0.02099368
0.07032072
0.006925273
-0.02862663
0.07231288
0.008907299
-0.03824575
0.07112825
0.01112607
-0.04920676
0.06673174
0.01364159
-0.06104582
0.0591261
0.01645594
-0.07322801
0.0484412
0.01946532
-0.08503893
0.03504407
0.02236736
-0.09550597
0.01962373
0.02457094
-0.1033216
0.003224533
0.02524468
-0.1068125
-0.01222342
0.02361029
-0.1039144
-0.02454294
0.0200879
-0.09421721
-0.03204166
0.01573841
-0.07919768
-0.03392567
0.01147111
-0.06084111
-0.03049288
0.007764835
-0.04170398
-0.02295943
0.004507555
-0.02407851
-0.01683382
0.001263903
-0.003987737
-0.01266325
0.0001672854
0.01712936
-0.009559175
-0.0002531136
0.03462354
-0.006831892
-0.0004851727
0.04993936
-0.003812122
-0.0005932562
0.06423199
0.001989897
-0.0005529179
0.07781916
-0.0002125697
0.08852431
0.02735023
-4.92445e-05
0.006312743
0.02744242
-0.0001108411
0.0101535
0.02808715
-0.0001556463
0.01045058
0.02994064
-0.000169845
0.008093308
0.03424422
-6.85072e-05
0.002649482
0.04292619
0.0006348882
-0.007821408
0.05534628
0.002926324
-0.01546569
0.0643691
0.005372949
-0.0195569
0.06977769
0.00773043
-0.0268147
0.0719728
0.01016213
-0.03610806
0.07097349
0.01284178
-0.04683808
0.06671567
0.01585807
-0.05856285
0.05917859
0.01921365
-0.07074718
0.0484811
0.02277559
-0.08264526
0.0350021
0.02617953
-0.09322374
0.01946951
0.02875177
-0.1011117
0.002977244
0.02957069
-0.1045955
-0.01250664
0.0277479
-0.1015648
-0.02481595
0.02364289
-0.09162084
-0.03229092
0.01836939
-0.07630831
-0.03415204
0.0130778
-0.05780262
-0.03068354
0.008498597
-0.03880987
-0.02311216
0.004662518
-0.02165132
-0.01706065
0.0011989
-0.00213495
-0.01293952
1.235372e-05
0.01801518
-0.009876218
-0.0005243811
0.03470269
-0.007134296
-0.0008404222
0.04938114
-0.004037174
-0.0009829536
0.06326208
0.001868583
-0.0009025252
0.07666662
-0.000345416
0.08751713
0.02727027
-8.260641e-05
0.006236847
0.02735261
-0.0001781359
0.01002905
0.02795612
-0.0002377408
0.01038059
0.02973285
-0.0002541844
0.008227613
0.03395545
-0.0001723904
0.003142128
0.04254213
0.0003731696
-0.006817686
0.05480371
0.002844302
-0.01404885
0.06372802
0.005879708
-0.01777564
0.06916659
0.008694985
-0.02463232
0.07148088
0.01153448
-0.03356812
0.07063372
0.01466446
-0.04403871
0.06651071
0.01820185
-0.05563089
0.05905079
0.022145
-0.06781428
0.04834825
0.02632612
-0.07981309
0.03478346
0.03030693
-0.09052889
0.01911602
0.03330758
-0.09850938
0.00248822
0.03428623
-0.1019721
-0.01306692
0.03221386
-0.09872981
-0.02538028
0.0274402
-0.08846439
-0.03283843
0.02117161
-0.0728336
-0.03468895
0.01480743
-0.05423217
-0.0311823
0.009315865
-0.03551859
-0.02349829
0.004848669
-0.01904221
-0.01750069
0.001066097
-0.0002714814
-0.01343364
-0.0002338534
0.01857305
-0.0104045
-0.0008976728
0.03424657
-0.007623895
-0.001309178
0.04812208
-0.004405345
-0.001494906
0.06148281
0.001663401
-0.001364508
0.07466772
-0.0005140507
0.08579174
0.02714084
-0.000138728
0.006084126
0.02722687
-0.0002902478
0.009753545
0.02779392
-0.0003826716
0.01012654
0.02947166
-0.0004327525
0.008186873
0.03354563
-0.0004445329
0.00355241
0.04197693
-0.0001238948
-0.005696379
0.05393452
0.002743896
-0.01248994
0.06262528
0.006639818
-0.01589274
0.06808668
0.009811574
-0.02226357
0.07054499
0.01300034
-0.03073714
0.06988916
0.01657332
-0.04086863
0.0659508
0.0206563
-0.05227278
0.05862104
0.02524049
-0.06442205
0.04796108
0.03011847
-0.07650907
0.03434601
0.0347626
-0.08736448
0.01856162
0.03826222
-0.09544251
0.001797428
0.03942583
-0.09887168
-0.01382984
0.03705173
-0.09536596
-0.02613746
0.03152805
-0.08474648
-0.03357053
0.02419779
-0.06882301
-0.03541663
0.01671251
-0.05023892
-0.03189137
0.01025279
-0.03200103
-0.02415313
0.005083896
-0.01645433
-0.01813785
0.0009302523
0.00104711
-0.01415595
-0.0005402715
0.01856788
-0.01117111
-0.001353836
0.0329941
-0.00834353
-0.001882603
0.04587502
-0.004964309
-0.002132586
0.05857938
0.001345544
-0.001962112
0.07149133
-0.0007040537
0.08305371
0.02689921
-0.0002242772
0.005808767
0.02698992
-0.0004501731
0.009246416
0.02748593
-0.0005756953
0.009600075
0.02893811
-0.0006452296
0.007904152
0.03257304
-0.0007649966
0.003883218
0.04044092
-0.0008926496
-0.004207203
0.05161683
0.002711828
-0.01098806
0.06024561
0.007458078
-0.01439099
0.06599236
0.01080214
-0.0199619
0.0687881
0.01435264
-0.02776792
0.06847161
0.01842721
-0.03741585
0.06484796
0.02311743
-0.04853409
0.05776328
0.02842713
-0.06058059
0.04724441
0.03410793
-0.07271157
0.03365799
0.03952691
-0.08368189
0.01781462
0.0436151
-0.09184457
0.0009534706
0.04500325
-0.09522724
-0.01470941
0.04228152
-0.09143508
-0.02696744
0.03592058
-0.08047321
-0.03433813
0.02745626
-0.06433682
-0.03617208
0.018799
-0.04593689
-0.03266423
0.0113133
-0.02841536
-0.02495581
0.005366501
-0.0140779
-0.01892672
0.0008155461
0.001732691
-0.01508605
-0.0008793011
0.01777263
-0.01218529
-0.001863952
0.03068677
-0.009333187
-0.002534006
0.04233229
-0.00578105
-0.0028796
0.05418442
0.0007946294
-0.002683062
0.06672692
-0.0009127472
0.07887661
0.02643438
-0.0003452389
0.005351057
0.02652878
-0.0006555608
0.008415027
0.0269205
-0.0007987558
0.008708927
0.02804626
-0.0008489047
0.007287037
0.030658
-0.0008313502
0.004073295
0.03584776
-0.0004785131
-0.001810035
0.04528298
0.001444967
-0.009343166
0.05602534
0.006435223
-0.01400782
0.06274776
0.0111334
-0.01768194
0.0660563
0.01542284
-0.02458728
0.06624086
0.02006028
-0.03369192
0.06309567
0.02543493
-0.04444521
0.05641258
0.03158601
-0.05630608
0.04617115
0.03821655
-0.06840973
0.03272322
0.04456129
-0.07944373
0.01690582
0.04935636
-0.08766105
2.344695e-05
0.05102079
-0.0909848
-0.01560935
0.04791115
-0.08691395
-0.02773333
0.04059576
-0.07566594
-0.03495307
0.03089483
-0.05944559
-0.03672222
0.02099957
-0.04143274
-0.0332589
0.0124368
-0.0248746
-0.02566236
0.005633393
-0.01201745
-0.01975144
0.0006574808
0.001895443
-0.01612019
-0.001240772
0.016037
-0.01338733
-0.002390511
0.02713581
-0.01059171
-0.003213608
0.03722781
-0.006910867
-0.003690685
0.04791168
-5.235883e-05
-0.003508577
0.05985089
-0.001073127
0.07265765
0.02551434
-0.0004984775
0.004640996
0.02559923
-0.0008856413
0.007169183
0.0258685
-0.001029664
0.007377947
0.02670068
-0.001068203
0.006273537
0.02906827
-0.001172165
0.003783397
0.0347928
-0.00145967
-0.001259299
0.04359332
0.001207161
-0.007758403
0.05214888
0.00674841
-0.01108892
0.05850619
0.01165583
-0.01482001
0.06227035
0.01613545
-0.02122056
0.06312574
0.02124504
-0.02977074
0.06067774
0.02738429
-0.04007989
0.05459627
0.03455236
-0.05164856
0.04479316
0.04235126
-0.06362395
0.03160207
0.04983756
-0.07464595
0.01588926
0.05550704
-0.08287261
-0.0009338843
0.05751402
-0.08612381
-0.01643104
0.05394582
-0.08182534
-0.02829933
0.04550796
-0.07037911
-0.03520234
0.03438443
-0.05424193
-0.03675478
0.02313049
-0.03682717
-0.03330036
0.01345137
-0.02142917
-0.02591148
0.005732242
-0.01021586
-0.0202828
0.0003788866
0.00156938
-0.01696726
-0.00163829
0.01338729
-0.01454577
-0.00289596
0.02232338
-0.01198504
-0.00384923
0.03045683
-0.008343597
-0.004484765
0.03946444
-0.001344979
-0.004352594
0.05028686
-0.0009791698
0.06341336
0.02363175
-0.0006533922
0.003617293
0.02364091
-0.001067304
0.005461653
0.02368826
-0.001173093
0.005590678
0.0240409
-0.001165975
0.004865079
0.02517042
-0.001177661
0.003363245
0.02789164
-0.001250678
0.0004949267
0.03477289
-0.0002844063
-0.00536359
0.04476163
0.00518024
-0.009501945
0.05213153
0.01131445
-0.01231421
0.05708211
0.0157615
-0.0179537
0.0591237
0.02142099
-0.02586626
0.05772377
0.02860142
-0.03560549
0.05247988
0.03712229
-0.04674516
0.04326756
0.04643299
-0.05847163
0.03042933
0.05536538
-0.06939428
0.01488285