/*--------------------------------*- C++ -*----------------------------------*\
| =========                 |                                                 |
| \\      /  F ield         | OpenFOAM: The Open Source CFD Toolbox           |
|  \\    /   O peration     | Version:  2506                                  |
|   \\  /    A nd           | Website:  www.openfoam.com                      |
|    \\/     M anipulation  |                                                 |
\*---------------------------------------------------------------------------*/
FoamFile
{
    version     2.0;
    format      ascii;
    arch        "LSB;label=32;scalar=64";
    class       volVectorField;
    location    "200/airRegion";
    object      U;
}
// * * * * * * * * * * * * * * * * * * * * * * * * * * * * * * * * * * * * * //

dimensions      [0 1 -1 0 0 0 0];

internalField   nonuniform List<vector> 
85779
(
(-0.001381134 -0.001381811 -0.02128229)
(-0.001945455 -0.001947526 -0.02089556)
(-0.002023135 -0.002026519 -0.02029106)
(-0.002102648 -0.002106721 -0.01972976)
(-0.002485903 -0.002489921 -0.01954341)
(-0.003378903 -0.003387651 -0.02024376)
(-0.004292234 -0.004272696 -0.02248999)
(-0.0007562522 -0.0001660243 -0.02766028)
(0.006845081 0.007667994 -0.06264071)
(0.01793905 0.01884269 -0.08331982)
(0.03444325 0.03560457 -0.09805729)
(0.05467396 0.05610599 -0.1045921)
(0.07815346 0.07987296 -0.1024385)
(0.1033968 0.1054508 -0.09132712)
(0.1273447 0.1297782 -0.07144506)
(0.1452676 0.1480519 -0.0440778)
(0.1510659 0.1539944 -0.01204874)
(0.1379536 0.1406265 0.02084765)
(0.1096527 0.1117601 0.04521349)
(0.07502132 0.07643797 0.05820584)
(0.04242483 0.04316051 0.05803845)
(0.01815533 0.01843565 0.04775127)
(0.001136068 0.001307189 0.02212663)
(-0.005080864 -0.005121339 0.01811108)
(-0.006232468 -0.00628747 0.01633745)
(-0.007570471 -0.007645451 0.01544207)
(-0.009394563 -0.009468744 0.01500508)
(-0.01166104 -0.01172487 0.01408501)
(-0.01352856 -0.0135817 0.01245281)
(-0.004999664 -0.005047268 0.003032948)
(-0.004394429 -0.001397609 -0.03823867)
(-0.006355108 -0.002195828 -0.03813713)
(-0.006513743 -0.00235885 -0.03775967)
(-0.006166639 -0.002317405 -0.03747512)
(-0.005696044 -0.002320722 -0.03790485)
(-0.004700192 -0.002437062 -0.03978711)
(-0.000444632 -0.0006824679 -0.04288723)
(0.004350464 0.009364522 -0.06030929)
(0.01047571 0.02050932 -0.07974314)
(0.02293307 0.02998666 -0.09482808)
(0.04050141 0.04208473 -0.1057768)
(0.06183778 0.05739823 -0.1097489)
(0.08629124 0.07561667 -0.1058037)
(0.1122549 0.09556705 -0.09344067)
(0.1366716 0.1147758 -0.07274308)
(0.1548771 0.1292255 -0.04490686)
(0.1608088 0.1336191 -0.01273482)
(0.1473699 0.1224541 0.02039538)
(0.1181326 0.0992952 0.04556921)
(0.08196578 0.07150051 0.06037171)
(0.04733655 0.0457163 0.063297)
(0.02050296 0.02526843 0.0577117)
(0.003717965 0.008008861 0.04526338)
(-0.007082955 -0.002308635 0.03202523)
(-0.01530594 -0.005045068 0.02954992)
(-0.02118069 -0.006998825 0.02711212)
(-0.0274415 -0.008811737 0.02527605)
(-0.0358905 -0.01029527 0.02244071)
(-0.04968686 -0.009914281 0.01938321)
(-0.06704179 0.002031484 -0.002525851)
(-0.007018378 -0.00113065 -0.04587489)
(-0.01049291 -0.001937666 -0.0459815)
(-0.01085164 -0.002194635 -0.04602657)
(-0.01002199 -0.002225429 -0.04639601)
(-0.008402482 -0.002339552 -0.04796294)
(-0.005127115 -0.002604533 -0.05100882)
(0.003490674 0.001412584 -0.05701691)
(0.008096317 0.01300291 -0.08255184)
(0.01439376 0.02356979 -0.09691837)
(0.028878 0.03254932 -0.1085894)
(0.04802091 0.04303489 -0.1157172)
(0.07085854 0.05587928 -0.1166314)
(0.09654549 0.0710211 -0.1104082)
(0.123375 0.087594 -0.09642778)
(0.1483157 0.103584 -0.07468103)
(0.1667929 0.1155723 -0.04622135)
(0.1727849 0.1189679 -0.01373353)
(0.1589341 0.1090829 0.01988515)
(0.1287218 0.0891825 0.04597351)
(0.09089712 0.06547185 0.0625906)
(0.05392039 0.0433627 0.06817299)
(0.0238265 0.02514785 0.06498515)
(0.00461818 0.009377287 0.0566342)
(-0.009621626 -0.0009674201 0.03753835)
(-0.0240079 -0.004149893 0.03448221)
(-0.03478187 -0.006297729 0.03057747)
(-0.04598307 -0.008091397 0.02717077)
(-0.06049924 -0.009383034 0.0223386)
(-0.08244989 -0.009129705 0.01813961)
(-0.10422 -0.001832746 -0.01026863)
(-0.009026861 -0.0008099076 -0.0495594)
(-0.01388856 -0.001492161 -0.04965934)
(-0.01454279 -0.001778306 -0.04997675)
(-0.01329113 -0.001866739 -0.05102245)
(-0.01045442 -0.001998943 -0.05392813)
(-0.003330896 -0.002014627 -0.05793037)
(0.004806123 0.003713031 -0.07732525)
(0.009842508 0.01411211 -0.09672452)
(0.01947138 0.02310288 -0.1098267)
(0.03553379 0.0316718 -0.1197117)
(0.05609234 0.04128401 -0.1244458)
(0.08027012 0.05254869 -0.1231089)
(0.1070157 0.06552285 -0.1149824)
(0.1345438 0.07958958 -0.09954248)
(0.1598894 0.09312851 -0.07679978)
(0.1785861 0.1032312 -0.04771823)
(0.1846384 0.1058642 -0.01488233)
(0.1704236 0.09687196 0.01926302)
(0.1394044 0.07931066 0.04606837)
(0.1001518 0.05854125 0.06384965)
(0.0609261 0.03906245 0.07077738)
(0.02778412 0.0227651 0.06833147)
(0.005373904 0.009273596 0.0603561)
(-0.01264284 4.674749e-05 0.0389126)
(-0.03189018 -0.003256966 0.03517872)
(-0.04720669 -0.005373055 0.03016329)
(-0.06277999 -0.00699059 0.02564291)
(-0.08164021 -0.008002817 0.01970912)
(-0.1074245 -0.00767765 0.01583973)
(-0.126215 -0.002233431 -0.0148934)
(-0.01042461 -0.0005362903 -0.05141398)
(-0.01638728 -0.00104836 -0.05141757)
(-0.01734158 -0.001308436 -0.0518591)
(-0.01573776 -0.001424687 -0.05334753)
(-0.01180483 -0.001520977 -0.05716563)
(-0.002550308 -0.001255944 -0.06173512)
(0.006655369 0.004628195 -0.08545271)
(0.01320273 0.0142072 -0.1049952)
(0.02481635 0.02200488 -0.1185671)
(0.04239184 0.02970321 -0.1277009)
(0.06425246 0.03828502 -0.1311021)
(0.08948613 0.04816217 -0.1282871)
(0.116958 0.05936403 -0.1187963)
(0.1448892 0.07140573 -0.102254)
(0.1704352 0.08296171 -0.07873614)
(0.1892568 0.09153643 -0.04914853)
(0.1953635 0.09354429 -0.0160038)
(0.1808862 0.08527087 0.0186005)
(0.1493622 0.06967075 0.04581625)
(0.1091815 0.05144372 0.06410478)
(0.06826125 0.0344103 0.0714025)
(0.03252599 0.0202292 0.06889205)
(0.006791786 0.008881773 0.06045004)
(-0.01494535 0.0007057086 0.03822613)
(-0.03823624 -0.002420936 0.03391856)
(-0.05743199 -0.004332128 0.02822902)
(-0.07649076 -0.005692458 0.0231225)
(-0.09820993 -0.006431199 0.0168077)
(-0.1257451 -0.006040777 0.01371784)
(-0.1414933 -0.002000373 -0.01793661)
(-0.01133138 -0.0003362789 -0.05237582)
(-0.01807804 -0.0006885476 -0.05228383)
(-0.01927436 -0.0008899766 -0.05279574)
(-0.01737635 -0.0009856237 -0.05466348)
(-0.01234235 -0.001004104 -0.05939033)
(-0.0001494692 -0.0004152448 -0.06464871)
(0.007616536 0.005585308 -0.0958005)
(0.01480355 0.01362879 -0.1119546)
(0.02963344 0.02032492 -0.1251395)
(0.04903108 0.02707995 -0.1333987)
(0.07212641 0.03463307 -0.1357749)
(0.09818157 0.043251 -0.1319409)
(0.1261034 0.05292578 -0.1215232)
(0.1541967 0.06325866 -0.1042395)
(0.1797848 0.07315533 -0.08021324)
(0.1986636 0.08045818 -0.05029374)
(0.2048093 0.08195144 -0.01692621)
(0.1901362 0.07434444 0.01801581)
(0.1583686 0.06057139 0.04536772)
(0.1177309 0.04475582 0.06370448)
(0.0757127 0.03010948 0.07086588)
(0.03795708 0.01801588 0.06800513)
(0.009256961 0.008440857 0.05909283)
(-0.01586845 0.001121019 0.03679488)
(-0.04260306 -0.001655612 0.03207574)
(-0.06502947 -0.003278156 0.02601393)
(-0.08680007 -0.00437014 0.02067719)
(-0.1104425 -0.004898686 0.0143699)
(-0.1388526 -0.004519103 0.01205003)
(-0.1520852 -0.001612378 -0.01990094)
(-0.01188401 -0.0002028134 -0.0528848)
(-0.01913344 -0.0004304014 -0.05272145)
(-0.02046884 -0.0005674941 -0.05326219)
(-0.01828682 -0.0006073763 -0.05533471)
(-0.01236499 -0.0004509923 -0.06047549)
(0.001528631 0.0006855703 -0.06613085)
(0.009987044 0.005821475 -0.09918759)
(0.01827435 0.01213959 -0.1154863)
(0.03471347 0.01804637 -0.1288809)
(0.05544501 0.02407423 -0.136811)
(0.079524 0.03071216 -0.1386098)
(0.1061808 0.03818523 -0.1341391)
(0.1343455 0.04649421 -0.1231413)
(0.1624403 0.05532221 -0.1054143)
(0.1879848 0.06377202 -0.08111314)
(0.2068979 0.06997557 -0.05102136)
(0.2130583 0.07104266 -0.01749991)
(0.1981998 0.06412728 0.01767011)
(0.1663846 0.05217928 0.04495968)
(0.125691 0.03874713 0.06306993)
(0.08312572 0.02641814 0.0698729)
(0.04395255 0.01623956 0.0666436)
(0.0128347 0.008076249 0.05741238)
(-0.01523109 0.001429224 0.03534875)
(-0.04494776 -0.0009626895 0.03033675)
(-0.07007868 -0.002290099 0.02407079)
(-0.09399541 -0.003146375 0.01868143)
(-0.1190201 -0.003532858 0.01253037)
(-0.1479411 -0.003226075 0.01087173)
(-0.1593554 -0.001207077 -0.02119267)
(-0.01220195 -0.00012222 -0.05316439)
(-0.01974427 -0.0002727484 -0.05296313)
(-0.02112988 -0.0003842343 -0.05353077)
(-0.01867717 -0.0004472848 -0.05573099)
(-0.01206463 -0.000301935 -0.06099282)
(0.003140619 0.001298337 -0.06692753)
(0.01275019 0.006182009 -0.1005136)
(0.02221431 0.01118074 -0.1172408)
(0.03981545 0.01606762 -0.1308504)
(0.06152404 0.02120068 -0.1386391)
(0.08631449 0.0268708 -0.1400847)
(0.1133657 0.03322456 -0.1352073)
(0.1416248 0.04025233 -0.1238489)
(0.1696373 0.04769824 -0.1058766)
(0.1951222 0.05483215 -0.08145615)
(0.2140878 0.06004493 -0.05128983)
(0.2202331 0.06075913 -0.01762834)
(0.2051581 0.0546185 0.01770917)
(0.173447 0.04456436 0.04480486)
(0.1330293 0.03351166 0.06254036)
(0.09038157 0.02339098 0.06890735)
(0.05033112 0.01490653 0.06536312)
(0.01735267 0.007845592 0.05594452)
(-0.01320567 0.001676267 0.03421269)
(-0.04553613 -0.00036246 0.02899122)
(-0.07295747 -0.001428778 0.02258626)
(-0.09861653 -0.002094806 0.01720299)
(-0.1247088 -0.002391827 0.01123091)
(-0.1539969 -0.002184073 0.01007189)
(-0.164214 -0.0008458325 -0.02204833)
(-0.01237817 -7.926719e-05 -0.05333769)
(-0.02008292 -0.0001977475 -0.05314423)
(-0.02146717 -0.0003449847 -0.05380517)
(-0.01873151 -0.0005937824 -0.05622852)
(-0.01150506 -0.0009172455 -0.06154514)
(0.004572756 0.001667769 -0.06834382)
(0.01527618 0.007003041 -0.1020284)
(0.02582039 0.0107561 -0.1188436)
(0.04440979 0.01446809 -0.1322897)
(0.06691812 0.01856553 -0.1397487)
(0.09226915 0.02320753 -0.1408172)
(0.1196041 0.02844952 -0.1355827)
(0.1478954 0.03425076 -0.1239468)
(0.1758155 0.0403947 -0.1058166)
(0.2012791 0.04629026 -0.0813436)
(0.2203408 0.05057646 -0.05112978)
(0.2264346 0.05101179 -0.01728327)
(0.2111182 0.04579157 0.01818807)
(0.179653 0.03772966 0.04501493)
(0.1397659 0.02902932 0.06232342)
(0.09736738 0.02096789 0.06826106)
(0.05684782 0.01395507 0.06446348)
(0.02248874 0.007763709 0.05492218)
(-0.01016284 0.001928303 0.03350594)
(-0.04479403 0.000130875 0.02811938)
(-0.07415964 -0.0007287284 0.02157753)
(-0.1012534 -0.001246953 0.01619254)
(-0.1282108 -0.001487222 0.01036003)
(-0.1578156 -0.001378786 0.009556154)
(-0.1672938 -0.0005414093 -0.02257509)
(-0.0124769 -5.34776e-05 -0.05347075)
(-0.02028144 -0.0001486942 -0.0533449)
(-0.0216612 -0.0003055615 -0.05426104)
(-0.01861467 -0.0006710331 -0.05741637)
(-0.01029149 -0.001280113 -0.06279902)
(0.005025791 0.002061653 -0.07626381)
(0.01620695 0.007206912 -0.1054413)
(0.02849578 0.00992277 -0.1216083)
(0.04811929 0.01266474 -0.1340066)
(0.07140043 0.01587261 -0.1407233)
(0.09725306 0.01957135 -0.1412469)
(0.1248309 0.02377473 -0.1356076)
(0.1531491 0.02842518 -0.1236972)
(0.1810072 0.03333565 -0.1054243)
(0.2065039 0.03803704 -0.080905)
(0.2257 0.04143312 -0.05063061)
(0.2317075 0.04169232 -0.01653325)
(0.2162017 0.03759658 0.01902222)
(0.1851479 0.03160683 0.04556744)
(0.1459594 0.02517845 0.06249332)
(0.1039762 0.01899922 0.06808592)
(0.06322218 0.01327103 0.06411588)
(0.02784552 0.007806902 0.05450478)
(-0.006515401 0.002221075 0.03327564)
(-0.04319216 0.0004972503 0.02765342)
(-0.07418254 -0.0002073313 0.0209848)
(-0.1024517 -0.0006079306 0.01556889)
(-0.1301186 -0.0008052594 0.009820324)
(-0.1600102 -0.0007734231 0.009246608)
(-0.1690807 -0.0003060484 -0.02287302)
(-0.01252378 -3.211824e-05 -0.05356445)
(-0.02036775 -9.117778e-05 -0.05350143)
(-0.02171319 -0.0001850441 -0.05465522)
(-0.01838869 -0.0003859841 -0.05834957)
(-0.008070266 -0.0005513789 -0.06373127)
(0.005233525 0.002135499 -0.08679125)
(0.01584169 0.005708627 -0.1087826)
(0.03071384 0.008073536 -0.1237831)
(0.05117911 0.0103619 -0.1353824)
(0.07502066 0.01293564 -0.1414044)
(0.1012802 0.01584001 -0.141441)
(0.1290593 0.01910708 -0.1354315)
(0.1574044 0.02268571 -0.123267)
(0.1852244 0.02641747 -0.1048578)
(0.2107714 0.0299462 -0.08028703)
(0.2300987 0.03247877 -0.04994748)
(0.2360328 0.03270918 -0.01558877)
(0.2205247 0.02995062 0.01999185)
(0.1900825 0.02603683 0.04631852)
(0.1516683 0.02172723 0.0630169)
(0.1100938 0.01724664 0.06843644)
(0.06915808 0.01268828 0.0644101)
(0.03298846 0.007890025 0.05477172)
(-0.002720751 0.002424578 0.03354788)
(-0.04119615 0.0006752944 0.02750512)
(-0.07348039 0.0001167013 0.02073795)
(-0.1026843 -0.0001722348 0.01525255)
(-0.1309195 -0.0003257639 0.009532381)
(-0.1610611 -0.0003419901 0.009087256)
(-0.1699472 -0.0001347393 -0.02301299)
(-0.01253734 -1.710867e-05 -0.0536214)
(-0.02037595 -4.661162e-05 -0.05359449)
(-0.02164776 -8.488817e-05 -0.05484176)
(-0.01809548 -5.597569e-05 -0.05870038)
(-0.00739319 0.0002619405 -0.06416685)
(0.006344885 0.0008961825 -0.08766029)
(0.01725228 0.00341382 -0.1097601)
(0.03260291 0.005881716 -0.1247428)
(0.05356448 0.007921242 -0.1361058)
(0.07782589 0.009889436 -0.1417721)
(0.1043782 0.01204786 -0.1414679)
(0.1322993 0.01442968 -0.1351731)
(0.1606543 0.01698422 -0.122804)
(0.1884247 0.01957478 -0.1042831)
(0.2139724 0.02195138 -0.07967591)
(0.2333792 0.02365498 -0.04930411)
(0.2393586 0.0240005 -0.01476883)
(0.224177 0.0227085 0.02080019)
(0.1945502 0.02075302 0.04705515)
(0.1568896 0.01833283 0.0637908)
(0.1155604 0.01538413 0.06931191)
(0.07431179 0.01199004 0.06540969)
(0.03739552 0.007994814 0.05577069)
(0.0005993558 0.002512639 0.03441993)
(-0.03917933 0.0005437605 0.02772334)
(-0.07242567 0.0002183356 0.02080669)
(-0.1023441 6.765857e-05 0.01518306)
(-0.1310103 -2.796578e-05 0.00943268)
(-0.1613523 -6.314709e-05 0.009036609)
(-0.1701895 -2.080006e-05 -0.02304579)
(-0.01253641 -8.769655e-06 -0.0536563)
(-0.02035335 -2.307421e-05 -0.053652)
(-0.02154152 -3.911239e-05 -0.05489508)
(-0.01778014 2.537499e-05 -0.05872329)
(-0.008233152 0.0003639979 -0.06451026)
(0.007766428 0.0007355639 -0.080478)
(0.02000821 0.002268601 -0.1091278)
(0.03390487 0.004032721 -0.1250633)
(0.05514665 0.00547212 -0.136459)
(0.07976569 0.006801773 -0.1420046)
(0.1065269 0.008226735 -0.1414611)
(0.1345362 0.009753681 -0.1349628)
(0.1628721 0.01132156 -0.1224525)
(0.1905546 0.01280837 -0.1038686)
(0.216018 0.01406517 -0.07927387)
(0.2354354 0.01497257 -0.0489492)
(0.2416433 0.0154985 -0.01440207)
(0.2271764 0.01565304 0.0211595)
(0.1985269 0.01541428 0.04754463)
(0.1615251 0.01456135 0.06464782)
(0.120167 0.01290814 0.07064235)
(0.07828386 0.0106239 0.0672523)
(0.04031243 0.007662822 0.05786906)
(0.002708042 0.002586231 0.03732807)
(-0.03738645 0.0002541577 0.02838328)
(-0.07131206 0.0001811853 0.02125638)
(-0.1017611 0.0001585179 0.0153218)
(-0.1307219 0.0001169447 0.009469291)
(-0.1612039 8.179504e-05 0.009059104)
(-0.170061 3.928509e-05 -0.02301352)
(-0.01253176 -4.115726e-06 -0.05367661)
(-0.02032872 -1.158755e-05 -0.05368812)
(-0.02146352 -2.299312e-05 -0.05496652)
(-0.01758124 -9.017577e-05 -0.05884298)
(-0.007842367 -0.0001994075 -0.0646982)
(0.008269404 0.0007199658 -0.08077576)
(0.02065704 0.001852202 -0.1094987)
(0.03470368 0.002372884 -0.1254354)
(0.05612553 0.002973824 -0.1367391)
(0.08090127 0.003679337 -0.1421489)
(0.1077625 0.004402529 -0.1414679)
(0.1357962 0.005119769 -0.13486)
(0.1640717 0.00575412 -0.1222906)
(0.1916097 0.006191942 -0.1037192)
(0.216881 0.006374026 -0.07922408)
(0.2362207 0.006501653 -0.04907958)
(0.2428454 0.007163016 -0.01477489)
(0.2294706 0.008591013 0.0207732)
(0.2019159 0.00975606 0.04746103)
(0.1654823 0.01009646 0.06518287)
(0.1239179 0.00942953 0.07189616)
(0.08128083 0.008097265 0.06921238)
(0.04197964 0.006292827 0.06015673)
(0.003844045 0.00253265 0.04135712)
(-0.03580121 1.991008e-05 0.02903314)
(-0.07036204 0.0001031319 0.02184313)
(-0.101166 0.0001565323 0.01554332)
(-0.1303147 0.0001407194 0.009560542)
(-0.1608876 0.0001128096 0.00910997)
(-0.1697885 5.046075e-05 -0.0229576)
(-0.01252998 -8.834264e-07 -0.05368569)
(-0.02032042 -2.67085e-06 -0.05370716)
(-0.02144952 -7.172474e-06 -0.05506743)
(-0.01755153 -7.629476e-05 -0.05912525)
(-0.006288762 -0.0002531674 -0.06479874)
(0.007739551 0.0005716431 -0.08875288)
(0.01905526 0.0007137502 -0.1108592)
(0.03500602 0.0005108013 -0.1258369)
(0.05656236 0.0004877609 -0.1369393)
(0.08131116 0.0005776716 -0.1422012)
(0.1081688 0.0006275539 -0.1414804)
(0.1361679 0.0005782324 -0.1348519)
(0.1643487 0.0003340111 -0.1222985)
(0.1916889 -0.0002183591 -0.1038112)
(0.2166457 -0.001066043 -0.07951963)
(0.2357786 -0.001725059 -0.04975965)
(0.2429387 -0.001082848 -0.01607941)
(0.2309649 0.001369989 0.01935566)
(0.2045649 0.003687881 0.04647537)
(0.1686121 0.004929168 0.0649728)
(0.1267804 0.005013866 0.07253271)
(0.08340434 0.004364522 0.07057931)
(0.04200017 0.003323137 0.06225886)
(0.004012555 0.001567842 0.048214)
(-0.0339577 0.0001099218 0.02944921)
(-0.06973707 7.463712e-05 0.02232325)
(-0.1007491 8.771358e-05 0.01573388)
(-0.1300051 7.509113e-05 0.009632628)
(-0.1606336 5.85095e-05 0.009148757)
(-0.1695737 2.370609e-05 -0.02291609)
(-0.01253276 2.308398e-06 -0.05368189)
(-0.02032955 7.628864e-06 -0.05369919)
(-0.02147225 1.606395e-05 -0.05505141)
(-0.01759451 7.761858e-05 -0.05909993)
(-0.006356076 0.0001767506 -0.0647609)
(0.007608649 -0.0008315184 -0.08873822)
(0.01892381 -0.001361022 -0.1107928)
(0.03485671 -0.001590029 -0.1257359)
(0.05636109 -0.001958268 -0.1368475)
(0.08103654 -0.002459927 -0.1421475)
(0.1078203 -0.003054507 -0.1414772)
(0.135747 -0.003825443 -0.1349036)
(0.1638229 -0.00487437 -0.1224201)
(0.1909418 -0.006298997 -0.1040551)
(0.2154931 -0.008015659 -0.08001828)
(0.2342819 -0.009356489 -0.05077233)
(0.2419107 -0.008965042 -0.01796032)
(0.2315157 -0.00603767 0.01703508)
(0.2062952 -0.002858199 0.04455448)
(0.170697 -0.0008089238 0.06383421)
(0.1285106 2.853708e-05 0.07214263)
(0.08458513 9.481524e-05 0.07049437)
(0.0431924 -0.0002509275 0.06207928)
(0.004833122 -0.000337904 0.04662037)
(-0.03399041 0.0001951815 0.029498)
(-0.0695489 3.373686e-05 0.0223134)
(-0.1006275 -2.159992e-05 0.0157452)
(-0.1299341 -2.605935e-05 0.009641546)
(-0.1605924 -2.689603e-05 0.00915101)
(-0.1695569 -1.677345e-05 -0.02291368)
(-0.01253948 6.216259e-06 -0.05366516)
(-0.02035395 1.995119e-05 -0.05366523)
(-0.02152601 4.513049e-05 -0.05492291)
(-0.01770099 0.0001330788 -0.05878815)
(-0.008011444 0.0002334706 -0.06460733)
(0.007881604 -0.0009634128 -0.08090532)
(0.02017917 -0.002597936 -0.1093292)
(0.03421857 -0.003451203 -0.1251653)
(0.05551316 -0.004341126 -0.1364838)
(0.08009612 -0.005392649 -0.1420021)
(0.1067564 -0.006604261 -0.1414591)
(0.1345897 -0.008063867 -0.1350042)
(0.1625717 -0.009863893 -0.1226299)
(0.1894925 -0.01206732 -0.104394)
(0.2136416 -0.01451218 -0.08058172)
(0.2320344 -0.01642064 -0.05179196)
(0.2399473 -0.01636261 -0.01972767)
(0.2310089 -0.01333924 0.0144802)
(0.2068283 -0.009543213 0.04228422)
(0.1715068 -0.006743118 0.06212445)
(0.1289895 -0.00506743 0.07104477)
(0.08459337 -0.004014588 0.06965785)
(0.04379044 -0.003012753 0.06108432)
(0.004914786 -0.001231184 0.04242763)
(-0.03494164 -0.0001217313 0.02943445)
(-0.06976362 -0.0001011626 0.02212198)
(-0.1008122 -0.0001044355 0.01565981)
(-0.1300967 -8.781953e-05 0.00960385)
(-0.1607498 -7.383847e-05 0.009121953)
(-0.1697192 -3.880026e-05 -0.02294656)
(-0.01254649 1.13723e-05 -0.05363425)
(-0.02038214 3.488356e-05 -0.05360374)
(-0.02160945 7.544369e-05 -0.05479096)
(-0.01793625 7.961852e-05 -0.0585267)
(-0.008521587 -0.0001123531 -0.06427239)
(0.007290718 -0.001004378 -0.08014146)
(0.01936805 -0.003198649 -0.1086426)
(0.0331221 -0.005052164 -0.124474)
(0.05412882 -0.006625183 -0.1360055)
(0.07846218 -0.008212098 -0.1417554)
(0.1049499 -0.01004138 -0.1414291)
(0.1326863 -0.01218787 -0.1351531)
(0.1606095 -0.01472225 -0.1229166)
(0.1874097 -0.01765614 -0.104796)
(0.2112688 -0.02074341 -0.08113758)
(0.2293313 -0.0231437 -0.05266293)
(0.2373729 -0.02343273 -0.02113387)
(0.2295205 -0.02049429 0.01232236)
(0.2061481 -0.01620435 0.04021311)
(0.1710385 -0.01252602 0.06033314)
(0.1283504 -0.009842454 0.06961466)
(0.08378882 -0.007686884 0.06839092)
(0.0430259 -0.005261834 0.05997952)
(0.004215621 -0.001908077 0.04146866)
(-0.03571337 -0.0004466504 0.02911444)
(-0.0703349 -0.0001745332 0.02188571)
(-0.1011753 -8.951341e-05 0.01555689)
(-0.1303436 -5.276639e-05 0.009550953)
(-0.1609503 -3.441527e-05 0.009083264)
(-0.1699166 -2.349254e-05 -0.02298992)
(-0.01254891 2.079369e-05 -0.05358988)
(-0.02040349 6.432923e-05 -0.05352313)
(-0.02170246 0.0001462346 -0.05467238)
(-0.01820944 0.0003222902 -0.05833062)
(-0.007724117 0.000501287 -0.06403168)
(0.00569341 -0.001524435 -0.08647169)
(0.01630347 -0.004971503 -0.1090797)
(0.03133746 -0.007008892 -0.1238348)
(0.0520996 -0.008858336 -0.1354819)
(0.07609396 -0.01096054 -0.1414392)
(0.1023775 -0.01340778 -0.1413881)
(0.1300173 -0.0162518 -0.1353364)
(0.157923 -0.01953329 -0.1232588)
(0.1846983 -0.02320153 -0.1052329)
(0.2084155 -0.02692112 -0.08164513)
(0.226265 -0.02979464 -0.05331685)
(0.2343409 -0.03040352 -0.02208713)
(0.2271586 -0.02755424 0.01082359)
(0.2042984 -0.02275092 0.03865805)
(0.1692994 -0.0180198 0.05882693)
(0.1265514 -0.01410411 0.06821879)
(0.08204022 -0.01087471 0.06701049)
(0.04079331 -0.007593273 0.05904027)
(0.002599342 -0.002830095 0.04342911)
(-0.0362093 -0.0002051737 0.02864999)
(-0.07106785 -1.663594e-05 0.02163948)
(-0.1015156 5.227315e-05 0.01549153)
(-0.1304605 0.0001067021 0.009534317)
(-0.1609732 0.0001157541 0.009067906)
(-0.1699594 3.930642e-05 -0.0230096)
(-0.01253285 3.499266e-05 -0.05351804)
(-0.02037983 0.0001053132 -0.05338503)
(-0.02171835 0.0002387177 -0.05428094)
(-0.01850891 0.0005809356 -0.05736804)
(-0.01037943 0.001152641 -0.06294741)
(0.005830685 -0.001883193 -0.0737405)
(0.01745379 -0.006550964 -0.1053517)
(0.02950148 -0.008814776 -0.1217621)
(0.04945136 -0.01101175 -0.1342378)
(0.07304474 -0.01364887 -0.1408662)
(0.09904961 -0.01673737 -0.1412325)
(0.1265638 -0.02031495 -0.1354816)
(0.1544793 -0.02439001 -0.1235955)
(0.181319 -0.02884426 -0.1056493)
(0.2050379 -0.033246 -0.08205604)
(0.2227983 -0.03662176 -0.05371989)
(0.2308582 -0.0375192 -0.02257439)
(0.2239792 -0.03465327 0.01003745)
(0.2013144 -0.02918925 0.03776359)
(0.1662758 -0.02315296 0.05782292)
(0.1234844 -0.01767621 0.06698199)
(0.07932572 -0.01305842 0.06521006)
(0.04004491 -0.008735077 0.05637335)
(0.00177064 -0.002770513 0.03526533)
(-0.0384412 -0.000102585 0.02802447)
(-0.07174915 0.0001451704 0.0211841)
(-0.1015852 0.0002922987 0.01545146)
(-0.1301947 0.0003959861 0.009613551)
(-0.1605577 0.0003868337 0.009115177)
(-0.1696265 0.0001510242 -0.02296612)
(-0.01248645 5.029654e-05 -0.05342047)
(-0.02029276 0.0001344829 -0.05321593)
(-0.02167033 0.0002577465 -0.0538925)
(-0.01875527 0.0004593822 -0.05639059)
(-0.01127998 0.0006583101 -0.06192685)
(0.005166453 -0.001547494 -0.06881929)
(0.01623857 -0.006279282 -0.102654)
(0.02722634 -0.009613064 -0.1193995)
(0.0463823 -0.01274652 -0.1327517)
(0.06934421 -0.01613747 -0.1400416)
(0.09494681 -0.01999799 -0.14091)
(0.1222847 -0.02440982 -0.135516)
(0.1502224 -0.02937332 -0.1238475)
(0.1771998 -0.03471196 -0.1059696)
(0.2010416 -0.03989296 -0.08230976)
(0.2188217 -0.0438376 -0.05384102)
(0.2268404 -0.04500488 -0.02260113)
(0.2199601 -0.04197637 0.009957768)
(0.1971652 -0.03565409 0.03762611)
(0.1618584 -0.02806673 0.05760203)
(0.1189112 -0.02075135 0.06664583)
(0.07491562 -0.01440058 0.06468539)
(0.03629698 -0.008683158 0.05583541)
(-0.0009275554 -0.002546159 0.0344662)
(-0.03995886 -0.0003799747 0.0281883)
(-0.07218093 0.0002944561 0.02133449)
(-0.1011836 0.0006610998 0.0157378)
(-0.1292808 0.0008398868 0.009896435)
(-0.1594234 0.0007964479 0.009275275)
(-0.1686993 0.0003139647 -0.02281787)
(-0.01239612 7.342477e-05 -0.05330534)
(-0.02012824 0.0001718448 -0.0530699)
(-0.02155298 0.0002584801 -0.05363243)
(-0.01892881 0.0003138059 -0.05588415)
(-0.0119371 0.0001532005 -0.06127023)
(0.003837931 -0.001372292 -0.06736941)
(0.01407475 -0.005812143 -0.1010723)
(0.02424932 -0.01010122 -0.1178519)
(0.04256955 -0.01420366 -0.1314869)
(0.06484471 -0.01849561 -0.139178)
(0.0899796 -0.02324946 -0.1404422)
(0.1171057 -0.02860714 -0.1353755)
(0.1450748 -0.03457426 -0.1239189)
(0.1722474 -0.0409224 -0.1060976)
(0.1963066 -0.0470089 -0.08233238)
(0.2141922 -0.05161503 -0.05364822)
(0.2221561 -0.05305348 -0.02218945)
(0.2150348 -0.04972078 0.01051006)
(0.1918346 -0.04235251 0.03818017)
(0.1560746 -0.03304239 0.05811294)
(0.1129404 -0.02378318 0.06710086)
(0.06923752 -0.01575285 0.06509444)
(0.03150531 -0.008880331 0.05623614)
(-0.004258736 -0.002397073 0.03467131)
(-0.04134506 -0.0002173811 0.02873835)
(-0.0720593 0.0007094843 0.02193051)
(-0.09993015 0.001239832 0.01636324)
(-0.1273364 0.001483375 0.01044058)
(-0.1572003 0.001376312 0.009589113)
(-0.1668915 0.0005397902 -0.0225151)
(-0.0122232 0.0001198572 -0.05314327)
(-0.019803 0.0002624781 -0.05291683)
(-0.02124345 0.0003538139 -0.05343524)
(-0.01888517 0.0003661067 -0.05556366)
(-0.01244929 0.0001587271 -0.06084965)
(0.002307276 -0.001053996 -0.06668163)
(0.01151137 -0.005608275 -0.1001357)
(0.02066372 -0.01085495 -0.116676)
(0.03802882 -0.0158705 -0.1302225)
(0.05952769 -0.02100844 -0.1380731)
(0.08412264 -0.02666308 -0.1396265)
(0.1109889 -0.03302324 -0.1348621)
(0.1389766 -0.04009045 -0.12363)
(0.1663709 -0.04757579 -0.1058868)
(0.1907057 -0.05470653 -0.08202399)
(0.2087537 -0.06008228 -0.05310137)
(0.2166527 -0.06181115 -0.02136712)
(0.2091146 -0.0580473 0.01159023)
(0.1853193 -0.04945916 0.03929022)
(0.1490234 -0.03828156 0.05919822)
(0.1058027 -0.02698717 0.06814367)
(0.06268524 -0.01723548 0.06611327)
(0.02630907 -0.009206454 0.05720183)
(-0.007473053 -0.002201909 0.03527689)
(-0.04217085 0.000185961 0.02969326)
(-0.07093863 0.001341433 0.02295445)
(-0.09735421 0.002039527 0.01738163)
(-0.1238768 0.002353802 0.01131847)
(-0.1534111 0.002157944 0.01011045)
(-0.1638333 0.0008354547 -0.02198798)
(-0.01190258 0.0002040045 -0.05286694)
(-0.01918581 0.0004339862 -0.05268229)
(-0.020571 0.0005773086 -0.05317991)
(-0.01847723 0.0006396341 -0.05517769)
(-0.01274794 0.0005672859 -0.06025082)
(0.000736144 -0.0002323527 -0.06582888)
(0.008974232 -0.005524918 -0.09856649)
(0.01701466 -0.01219454 -0.1147237)
(0.03316615 -0.01798246 -0.12806)
(0.05364728 -0.02383792 -0.1360627)
(0.07751677 -0.03033297 -0.1379779)
(0.1039913 -0.03771324 -0.1336077)
(0.1319173 -0.04596367 -0.1227034)
(0.1595008 -0.0547186 -0.1051402)
(0.1841176 -0.06304541 -0.08126428)
(0.2023485 -0.06931436 -0.05215733)
(0.2101705 -0.07137132 -0.02016774)
(0.2021014 -0.06706678 0.01307843)
(0.1776217 -0.05709861 0.04078485)
(0.1408309 -0.04392271 0.06064634)
(0.09776362 -0.03049828 0.06953952)
(0.05566228 -0.018923 0.06752223)
(0.02122031 -0.009605096 0.05864315)
(-0.009982979 -0.001936929 0.03634156)
(-0.04190451 0.000734608 0.03104058)
(-0.06828898 0.00215462 0.02443701)
(-0.09289183 0.00305508 0.01886463)
(-0.1182985 0.003468908 0.01262393)
(-0.1474355 0.003182731 0.0109156)
(-0.1590327 0.001189733 -0.02113652)
(-0.01134281 0.0003390024 -0.05235592)
(-0.01810943 0.000697414 -0.05224019)
(-0.01933362 0.0009114853 -0.05269429)
(-0.01749556 0.001040215 -0.05443095)
(-0.01266002 0.00119838 -0.05886941)
(-0.001069636 0.0009851008 -0.06410691)
(0.007140049 -0.005538737 -0.09341664)
(0.01434605 -0.0138826 -0.1105029)
(0.02851335 -0.0201961 -0.1236807)
(0.04753559 -0.02667536 -0.1322786)
(0.07035546 -0.03406425 -0.1348811)
(0.09621477 -0.04254974 -0.1311791)
(0.1239203 -0.05211239 -0.1208405)
(0.1515888 -0.0623081 -0.1036664)
(0.176432 -0.0720169 -0.07995156)
(0.1948245 -0.07933025 -0.0507946)
(0.2025513 -0.08177734 -0.01864221)
(0.1938999 -0.07683884 0.01483695)
(0.168754 -0.06533383 0.04246428)
(0.1316379 -0.05003223 0.06219138)
(0.08909634 -0.03438351 0.07097476)
(0.04855341 -0.02086849 0.06900226)
(0.01667818 -0.01010923 0.06029302)
(-0.01136794 -0.001692198 0.03770285)
(-0.04006098 0.001368009 0.03272938)
(-0.06357733 0.003102606 0.02636698)
(-0.08592526 0.004253615 0.02086257)
(-0.1098793 0.004818714 0.0144688)
(-0.1384624 0.00446611 0.01209768)
(-0.1518464 0.001592164 -0.01985513)
(-0.0104283 0.0005387653 -0.0513927)
(-0.01639695 0.001055534 -0.05137362)
(-0.01735976 0.001321594 -0.05175777)
(-0.01577659 0.00144268 -0.05306567)
(-0.01198067 0.001540553 -0.0565119)
(-0.004455819 0.001303728 -0.06114681)
(0.007060601 -0.00388178 -0.07620666)
(0.01444428 -0.0135576 -0.1023823)
(0.02388273 -0.0214017 -0.1168156)
(0.04102317 -0.02903955 -0.126358)
(0.06267786 -0.03751705 -0.1300409)
(0.08773649 -0.04727093 -0.1273267)
(0.1150227 -0.05834391 -0.1178739)
(0.1426064 -0.0702196 -0.1013789)
(0.167558 -0.08155763 -0.07806634)
(0.1860485 -0.09011213 -0.04905014)
(0.1936521 -0.09303967 -0.01686667)
(0.1844379 -0.0873854 0.01670269)
(0.1587489 -0.0741588 0.04411179)
(0.1215952 -0.05657677 0.06351991)
(0.08005072 -0.03859879 0.07203321)
(0.04166005 -0.02303525 0.07006309)
(0.01296361 -0.01067157 0.06163332)
(-0.01136676 -0.001440486 0.03904932)
(-0.0362999 0.002046623 0.03454753)
(-0.05638036 0.004118485 0.02858092)
(-0.07588112 0.005560816 0.02331434)
(-0.09782728 0.006346034 0.01691219)
(-0.1254866 0.005986652 0.01376784)
(-0.1413458 0.00198194 -0.01790008)
(-0.009023858 0.0008118208 -0.04953854)
(-0.0138801 0.001497805 -0.04962007)
(-0.01452838 0.001788833 -0.04989354)
(-0.01328217 0.001882693 -0.05084248)
(-0.01050292 0.001966715 -0.05356626)
(-0.003565524 0.001892595 -0.05765004)
(0.004569408 -0.002724761 -0.07597672)
(0.009198125 -0.01304956 -0.09566174)
(0.01845513 -0.02236811 -0.1084716)
(0.03431838 -0.03094447 -0.1184411)
(0.05469112 -0.04042708 -0.1232714)
(0.07872498 -0.05155256 -0.1219693)
(0.1053255 -0.06438282 -0.1138253)
(0.1325809 -0.0782693 -0.09836367)
(0.1574606 -0.09157657 -0.0757234)
(0.1759466 -0.101639 -0.04704685)