/*--------------------------------*- C++ -*----------------------------------*\
| =========                 |                                                 |
| \\      /  F ield         | OpenFOAM: The Open Source CFD Toolbox           |
|  \\    /   O peration     | Version:  2506                                  |
|   \\  /    A nd           | Website:  www.openfoam.com                      |
|    \\/     M anipulation  |                                                 |
\*---------------------------------------------------------------------------*/
FoamFile
{
    version     2.0;
    format      ascii;
    arch        "LSB;label=32;scalar=64";
    class       volScalarField;
    location    "250/airRegion";
    object      k;
}
// * * * * * * * * * * * * * * * * * * * * * * * * * * * * * * * * * * * * * //

dimensions      [0 2 -2 0 0 0 0];

internalField   nonuniform List<scalar> 
85779
(
0.09241359
0.08934341
0.08844565
0.08808096
0.08784796
0.08747962
0.08619256
0.08065169
0.05136722
0.03769408
0.03021475
0.02573144
0.02306637
0.02167393
0.0211476
0.02107718
0.02119783
0.02154594
0.02260573
0.02541639
0.0315195
0.04376074
0.06940358
0.08451548
0.08716209
0.08780087
0.0880064
0.08781644
0.08603968
0.07249409
0.09017036
0.0848769
0.08289714
0.08194788
0.08126801
0.08025374
0.07735842
0.06690479
0.04638043
0.03576112
0.0293895
0.02535639
0.02289123
0.02159296
0.02111114
0.02105026
0.02112657
0.0213235
0.02212839
0.02451392
0.02962736
0.03882799
0.05389725
0.07523861
0.07962868
0.08089858
0.08130612
0.08097897
0.07858328
0.06396497
0.09012641
0.08421996
0.08174678
0.0804425
0.07942328
0.07777888
0.07274903
0.05347151
0.04135859
0.03359324
0.02840004
0.0249063
0.02268025
0.02145241
0.02093766
0.0207847
0.02073489
0.02077023
0.02137258
0.02341424
0.02782591
0.03564165
0.04878415
0.0723726
0.07732511
0.07890167
0.07954619
0.07953042
0.07789876
0.0653677
0.09039031
0.0843781
0.08171395
0.08021443
0.07890221
0.0762438
0.06391765
0.04851921
0.03861627
0.03209571
0.02760376
0.02449884
0.02246249
0.02128257
0.02071252
0.02043827
0.02023197
0.02008737
0.02050197
0.02230704
0.0263712
0.03373985
0.04670987
0.07146909
0.07671405
0.07851083
0.07938657
0.07967849
0.07854792
0.06652941
0.09061968
0.08462786
0.08189375
0.08028917
0.07880033
0.07583429
0.06564526
0.04682284
0.03716262
0.0311207
0.02700214
0.02414247
0.02223388
0.02107495
0.02043421
0.02002299
0.01964223
0.01930505
0.01954801
0.02120884
0.02515016
0.0324583
0.04562453
0.07113935
0.07662601
0.0786166
0.07968357
0.08018147
0.07928349
0.06734823
0.0907739
0.08481849
0.08205536
0.08038065
0.07872935
0.07526423
0.06338967
0.04510504
0.03601761
0.03036614
0.02651204
0.02382019
0.02199275
0.02082967
0.02010373
0.01954284
0.01897404
0.01843668
0.01852593
0.02011159
0.02405314
0.03144343
0.0448606
0.07094011
0.0766585
0.07882566
0.08004293
0.08066571
0.07984027
0.06792712
0.0908677
0.08493883
0.08215812
0.0804267
0.07862134
0.07445827
0.05615368
0.04304616
0.03497779
0.02972888
0.02609424
0.0235244
0.0217443
0.02055585
0.01973104
0.01900831
0.01823955
0.0174973
0.01745184
0.01901387
0.02302089
0.03053897
0.0441899
0.07073335
0.07667728
0.07900603
0.0803434
0.08104608
0.08024024
0.06832037
0.09092067
0.08500602
0.08221054
0.08043111
0.07847774
0.07375949
0.05306067
0.04138383
0.03411157
0.0292101
0.02574281
0.02325548
0.02149696
0.0202674
0.01933258
0.01843669
0.01745682
0.01650645
0.01634635
0.01792458
0.02203124
0.0296847
0.04353802
0.070482
0.07664421
0.07912194
0.08055913
0.08131833
0.08051576
0.0685829
0.09094859
0.0850391
0.08222912
0.08041023
0.07835995
0.07337681
0.05207258
0.04061947
0.03358866
0.02883673
0.0254588
0.02301805
0.02126283
0.01998232
0.01893031
0.01785262
0.01665265
0.01549263
0.01523779
0.01686141
0.02108231
0.02886198
0.04288359
0.07017871
0.07655563
0.07917269
0.0806962
0.08149979
0.08069765
0.06875355
0.09096285
0.08505367
0.08222874
0.08036805
0.07821292
0.07299335
0.05150186
0.04012638
0.03320823
0.02854378
0.02522482
0.02281432
0.02105395
0.01971939
0.01854968
0.01728929
0.01586772
0.01450117
0.01416722
0.01584958
0.02018114
0.02806664
0.04222108
0.06980008
0.07641717
0.07916917
0.08076997
0.08161127
0.08081116
0.06885934
0.09097082
0.08506057
0.08222041
0.08030401
0.07796468
0.07224208
0.05074747
0.03960437
0.03285299
0.02828984
0.02502944
0.02264556
0.02087872
0.01949428
0.0182178
0.01679062
0.01516356
0.01360309
0.01319358
0.01492172
0.01933493
0.02728355
0.0415149
0.06929399
0.07622871
0.07912324
0.08079682
0.08167183
0.0808762
0.06891999
0.09097548
0.08506371
0.08220854
0.08021846
0.0775562
0.07047333
0.04966376
0.03903469
0.03251904
0.02807135
0.02486986
0.02251098
0.02074006
0.01931765
0.01796095
0.01640815
0.01461929
0.01289236
0.01239294
0.01411936
0.0185489
0.02646371
0.04062918
0.06858463
0.0759593
0.07903901
0.08079057
0.08169749
0.08090846
0.06895034
0.09097805
0.08506467
0.08219667
0.0801351
0.07708666
0.06748026
0.0485164
0.03853263
0.03224768
0.02790078
0.02474771
0.02240916
0.02063796
0.01919573
0.01779895
0.01618495
0.01430814
0.01246396
0.01184855
0.01349646
0.0178416
0.02553745
0.03921835
0.06692156
0.07546304
0.07890619
0.08076208
0.08170143
0.08092031
0.06896182
0.09097896
0.08506395
0.0821881
0.08009347
0.07674764
0.06297827
0.04774086
0.03824641
0.03208626
0.02779259
0.02466656
0.0223405
0.02057313
0.01913242
0.0177429
0.01614558
0.01427623
0.01238739
0.01163362
0.01311789
0.01728444
0.02459116
0.03701042
0.06096892
0.07451987
0.07873377
0.08072482
0.08169489
0.08092137
0.06896315
0.09097925
0.08506357
0.08218522
0.08008266
0.07671084
0.06286452
0.04763845
0.03816882
0.03202813
0.02774739
0.02462899
0.02230781
0.02054838
0.01913029
0.01779482
0.01629218
0.01452972
0.01268241
0.011787
0.01304241
0.01700033
0.02406395
0.03588083
0.05598335
0.07403558
0.07864137
0.08069961
0.08168714
0.08091869
0.06896115
0.09097939
0.08506417
0.0821876
0.08009326
0.0769044
0.06671641
0.0480477
0.038249
0.03205946
0.02776312
0.0246367
0.02231398
0.02056598
0.01918716
0.01793986
0.01658468
0.0149975
0.01327285
0.0122808
0.01328977
0.01702412
0.02395433
0.03586468
0.05922119
0.07410331
0.07862165
0.08068998
0.08168263
0.08091626
0.06895965
0.09097921
0.08506529
0.0821937
0.08011419
0.07682674
0.06336418
0.04796737
0.03838995
0.03217133
0.02783852
0.02468911
0.02235856
0.02062364
0.01929315
0.01814904
0.01695869
0.01556631
0.01399982
0.01297873
0.01379577
0.01733236
0.0241497
0.03582749
0.05585316
0.07400112
0.07862973
0.08069259
0.08168099
0.08091388
0.06895836
0.09097803
0.08506587
0.08220383
0.08016449
0.07716779
0.06754486
0.04880949
0.03876132
0.03238611
0.0279747
0.02478423
0.02243909
0.02071743
0.01943894
0.01839989
0.01736915
0.01616231
0.01475729
0.01376381
0.01446533
0.01787881
0.02471821
0.03676747
0.06026149
0.07437633
0.07869807
0.08070576
0.08167818
0.08090757
0.06895316
0.09097565
0.08506539
0.08221623
0.08024012
0.07739197
0.06590946
0.04952186
0.0392507
0.03268079
0.02816347
0.02491864
0.02255355
0.02084446
0.01961853
0.01868101
0.01779727
0.01675734
0.01550212
0.01457402
0.01523363
0.01861524
0.02563822
0.03832475
0.06274474
0.07493334
0.07881948
0.08072286
0.08166675
0.08089057
0.06893766
0.09097151
0.08506321
0.08223039
0.08034203
0.07807517
0.07236171
0.05113601
0.03989862
0.03303503
0.02839394
0.02508927
0.0227016
0.02100394
0.01982933
0.01898822
0.01823893
0.01734856
0.01623007
0.01539116
0.01606382
0.01946986
0.02675485
0.04047805
0.06795467
0.07579471
0.07896828
0.08072929
0.08163596
0.08085383
0.06890368
0.09096505
0.08505908
0.08224122
0.08040077
0.07829921
0.07318872
0.05177589
0.04035474
0.03337034
0.0286493
0.02529408
0.02288353
0.02119509
0.02006904
0.01931906
0.0186942
0.01794097
0.01695072
0.01621737
0.01693651
0.02035753
0.02771054
0.04161065
0.06911668
0.07613525
0.07903742
0.08070176
0.081572
0.08078577
0.06884062
0.09095169
0.08504598
0.08224232
0.08043757
0.07842
0.07350742
0.05227308
0.04081375
0.03374625
0.02894952
0.02553843
0.02309825
0.02141356
0.02033176
0.01966798
0.01916043
0.01853702
0.01767207
0.01705659
0.01784335
0.02126946
0.02859083
0.04241518
0.06966899
0.07631556
0.07904884
0.08062791
0.08145913
0.08067105
0.06873409
0.09092378
0.08501285
0.08222328
0.08045612
0.07852977
0.07388821
0.05342156
0.04163274
0.03429917
0.0293434
0.02583557
0.02334422
0.02165144
0.02060709
0.02002456
0.01962946
0.01913288
0.01839559
0.01790964
0.01878099
0.02221298
0.02946725
0.0431472
0.07010816
0.07643347
0.07900651
0.08049353
0.08127861
0.08048978
0.06856438
0.09087013
0.08494434
0.08216878
0.08044868
0.07867965
0.07473147
0.05827436
0.04363377
0.0352366
0.0298878
0.02619909
0.02361903
0.02189889
0.02088157
0.02037437
0.02008811
0.01971829
0.01911533
0.0187719
0.01974545
0.02319279
0.03036868
0.04386417
0.07042669
0.07649339
0.0789025
0.08028355
0.08100944
0.0802165
0.06830423
0.09077539
0.08482211
0.08206279
0.08039803
0.07878668
0.07552003
0.06460704
0.04568176
0.03630264
0.03053385
0.02662065
0.02391716
0.0221458
0.02114107
0.02070146
0.02052058
0.02027869
0.01981924
0.01963304
0.02073069
0.02421394
0.03131548
0.04459712
0.07068907
0.0765042
0.07873751
0.07999133
0.08063378
0.07981982
0.06791436
0.0906201
0.08462937
0.08189773
0.08030121
0.07884395
0.0760082
0.06622872
0.04724797
0.03741793
0.03127617
0.02710402
0.02423614
0.02238283
0.02137223
0.02099099
0.02091164
0.02079837
0.02049152
0.02047854
0.02173134
0.02529377
0.03235463
0.04540577
0.07094066
0.07650284
0.07854591
0.07964184
0.08015528
0.07926644
0.06733966
0.09038976
0.0843776
0.08171463
0.08022306
0.07895761
0.07653827
0.06533726
0.04919647
0.03891736
0.0322467
0.02769491
0.0245847
0.0226047
0.02156586
0.02123285
0.02124981
0.02126304
0.02111473
0.0212915
0.0227464
0.02647868
0.03361266
0.04648201
0.07130844
0.07661859
0.07845749
0.07935523
0.07965852
0.07853494
0.06652448
0.09012549
0.08421868
0.08174595
0.08044567
0.0794455
0.07787534
0.07305909
0.05375294
0.04153091
0.03369375
0.028467
0.02497931
0.02281382
0.0217225
0.02142595
0.02152972
0.02166073
0.02167003
0.02205198
0.02377782
0.02785892
0.03539101
0.04841484
0.07221044
0.07724637
0.07886292
0.07952465
0.07951656
0.07788989
0.0653656
0.09016952
0.08487553
0.08289565
0.08194789
0.08127533
0.08028455
0.07743751
0.06700078
0.04645896
0.03581242
0.02942897
0.02541401
0.02301555
0.02185164
0.02157258
0.02173953
0.0219648
0.02212135
0.022722
0.02480505
0.02954218
0.03832101
0.05318007
0.07502405
0.07955595
0.08087206
0.08129362
0.08097092
0.07857797
0.06396452
0.09241312
0.08934251
0.08844432
0.08807955
0.08784805
0.08748534
0.08619719
0.08050768
0.05137056
0.03771042
0.03023476
0.02577804
0.02318353
0.02192299
0.02158843
0.02172781
0.02197823
0.02227418
0.02313624
0.0256504
0.03133544
0.04302962
0.06850104
0.08432435
0.08712242
0.08779291
0.08800386
0.08781445
0.08603817
0.07249414
0.09017035
0.08487691
0.08289721
0.08194813
0.0812692
0.08026045
0.07738788
0.06691574
0.04638839
0.0357678
0.02939548
0.02536198
0.02289756
0.02160262
0.02112877
0.0210817
0.02117491
0.0213854
0.02218967
0.02455348
0.02961713
0.03874093
0.05376688
0.07520268
0.07962237
0.08090188
0.08131195
0.08098511
0.0785891
0.06396864
0.08594429
0.07603806
0.071417
0.06887282
0.06697199
0.06469163
0.06063725
0.05245554
0.04185509
0.03404489
0.02865124
0.02501643
0.02273256
0.02152315
0.02108648
0.02104129
0.02108615
0.02114688
0.02169894
0.02367542
0.02799366
0.03532807
0.04586769
0.05776497
0.06313143
0.06531391
0.06579799
0.06434134
0.05832267
0.03662529
0.08531149
0.07381587
0.06783198
0.06427017
0.06153701
0.05847012
0.05379866
0.04587114
0.03828844
0.03226732
0.02778668
0.024609
0.02253454
0.02138249
0.02090404
0.02075926
0.02067419
0.02057323
0.02091992
0.02255973
0.02623316
0.03235649
0.04096265
0.05096072
0.05629583
0.05876242
0.05942432
0.05805036
0.05246058
0.03370318
0.08545227
0.07354659
0.06696517
0.06282444
0.05951007
0.0557402
0.05000429
0.0426112
0.03611902
0.03097397
0.02706788
0.02423139
0.02232678
0.02121219
0.02067005
0.02039647
0.02015126
0.01986993
0.0200204
0.02140332
0.0246891
0.030262
0.03829397
0.04812077
0.05365306
0.0564545
0.05755419
0.05684823
0.05248302
0.03549913
0.08568128
0.07374002
0.06692652
0.06247839
0.05879203
0.05458018
0.0484513
0.04097774
0.03483118
0.03008586
0.02650566
0.02389186
0.02210373
0.02100209
0.02038053
0.01996128
0.01953706
0.01906228
0.01903064
0.02024076
0.02334661
0.02875386
0.03675896
0.04688535
0.05280129
0.05600927
0.05758286
0.05748825
0.05395004
0.03736294
0.08585572
0.07396249
0.06706025
0.06243788
0.05848352
0.0538879
0.04718791
0.03979636
0.03390229
0.02941486
0.02604665
0.0235801
0.02186389
0.02075067
0.02003429
0.01945483
0.01883636
0.01815981
0.01796496
0.0190753
0.02213787
0.02756738
0.03573693
0.04626695
0.05261842
0.05622327
0.05818772
0.05850167
0.05537941
0.03870167
0.0859652
0.07411728
0.06717302
0.06243638
0.05827589
0.0533408
0.04591831
0.03879177
0.03315161
0.02887251
0.02565921
0.02329191
0.02161367
0.02046717
0.01964057
0.01888606
0.01805899
0.01717522
0.01683955
0.01791095
0.0210144
0.02654608
0.03492272
0.04582908
0.05259863
0.05655694
0.05882247
0.05939494
0.05647257
0.03960432
0.08602608
0.07420361
0.06722979
0.06240781
0.0580799
0.05286515
0.04489181
0.03796028
0.03255312
0.02843777
0.02533297
0.02302846
0.02136311
0.02016663
0.01921606
0.0182713
0.01722112
0.01612629
0.01567519
0.0167583
0.01995233
0.0256115
0.03417887
0.04538873
0.05254226
0.05681124
0.0593131
0.06005762
0.05723777
0.04019862
0.08605573
0.07424123
0.06723956
0.06234881
0.05789788
0.05252444
0.04435167
0.03744876
0.03213292
0.02810236
0.02506166
0.02279348
0.02112492
0.01986794
0.01878317
0.01763461
0.01634805
0.01504051
0.01450071
0.01563466
0.0189443
0.02472893
0.0334479
0.0448553
0.05238927
0.05693754
0.05963362
0.06050299
0.05774339
0.04058001
0.08606726
0.07424907
0.06721645
0.06225507
0.05767425
0.05216665
0.04392618
0.03705143
0.03179784
0.02782818
0.02483427
0.02259049
0.02091159
0.01959065
0.01836865
0.01701068
0.01548213
0.01396592
0.01335971
0.01456456
0.01799201
0.02388596
0.0327236
0.0442842
0.05214723
0.05694591
0.05980791
0.06077557
0.05805795
0.04081379
0.08606943
0.07424114
0.0671729
0.06212533
0.05736978
0.05163784
0.04342144
0.03665159
0.03149318
0.02759316
0.02464476
0.02242193
0.0207319
0.01935168
0.01800346
0.01645128
0.01469567
0.01298467
0.01231791
0.01358171
0.01710157
0.02307146
0.03199166
0.04371127
0.05183188
0.05686117
0.05987136
0.06092141
0.05823723
0.04094602
0.08606748
0.07422725
0.06712381
0.06198453
0.05701431
0.05091013
0.04285495
0.03626359
0.0312232
0.0273967
0.02449154
0.0222874
0.02058905
0.0191636
0.0177209
0.01602293
0.01408826
0.01220944
0.01146163
0.01273171
0.01628582
0.02226508
0.03117912
0.0429902
0.0514157
0.05670045
0.05985692
0.06098032
0.05832482
0.04101043
0.08606438
0.07421375
0.06708219
0.06186833
0.05670725
0.0501838
0.04236082
0.03594812
0.03101193
0.02724617
0.02437496
0.02218522
0.02048329
0.01903442
0.01754615
0.01577968
0.01374987
0.01175164
0.01088471
0.01207534
0.01557789
0.02146157
0.03018287
0.04187109
0.05083188
0.0564746
0.05979377
0.06098565
0.0583551
0.04103284
0.08606186
0.07420448
0.06705722
0.06180768
0.05656061
0.04974588
0.04209306
0.03576726
0.03088284
0.02714937
0.0242968
0.02211542
0.02041552
0.018969
0.01749246
0.01575035
0.01373455
0.0116916
0.01067187
0.01168656
0.01504881
0.02075485
0.02910169
0.0401954
0.05013225
0.05623352
0.05971579
0.06096604
0.05835539
0.04103308
0.08606088
0.07420094
0.06704804
0.06178704
0.05651817
0.04967594
0.04202229
0.03570639
0.03083296
0.02710754
0.02425935
0.0220807
0.02038876
0.01897031
0.01756272
0.01593907
0.0140517
0.01205432
0.01087092
0.01163198
0.01478918
0.02034155
0.02850541
0.03935187
0.0497677
0.05608617
0.05965877
0.0609445
0.05834667
0.04102703
0.08606186
0.07420356
0.06705363
0.06179866
0.05655384
0.04988354
0.04209636
0.03574487
0.0308561
0.02712034
0.02426487
0.02208465
0.02040605
0.01903562
0.01773754
0.01629397
0.01461169
0.01274973
0.01144987
0.01193441
0.01484524
0.02025564
0.02835177
0.03929457
0.0496611
0.05603379
0.05963511
0.06093286
0.05834024
0.04102375
0.08606469
0.07421228
0.06707498
0.06184731
0.05664294
0.04989488
0.04223137
0.03587143
0.03095073
0.02718717
0.02431339
0.02212764
0.02046546
0.01915276
0.01797864
0.01672965
0.01526771
0.01357866
0.01224525
0.01251791
0.01519872
0.02047703
0.02850612
0.0392924
0.04972672
0.0560638
0.05964303
0.06093076
0.05833552
0.0410224
0.0860688
0.07422626
0.06711204
0.06193825
0.05684944
0.05039895
0.04258726
0.03612043
0.03112278
0.02730761
0.02440333
0.02220774
0.02056306
0.01931068
0.01825766
0.01718933
0.01593005
0.01441369
0.0131126
0.01325907
0.01577657
0.02098549
0.02905758
0.03997386
0.05001524
0.05617565
0.05967396
0.06092753
0.05832113
0.04101343
0.08607323
0.07424332
0.06716147
0.06207057
0.05717098
0.05092171
0.04307571
0.03646516
0.03136013
0.02747601
0.02453209
0.02232294
0.02069543
0.01950256
0.01856267
0.01765524
0.01657319
0.01521266
0.01398373
0.01408126
0.0165146
0.02174334
0.03001159
0.04113816
0.0505623
0.05636169
0.05970954
0.06090382
0.05827766
0.04098209
0.08607624
0.07425959
0.06721478
0.06222115
0.05756939
0.05194365
0.04372689
0.03688161
0.03164573
0.02768492
0.02469738
0.02247239
0.02086087
0.01972516
0.01889028
0.01812675
0.01720041
0.01597843
0.01484362
0.01494903
0.01735546
0.02264615
0.0311902
0.04275998
0.05124338
0.05656089
0.05971584
0.06083223
0.05817915
0.04090973
0.08607483
0.07426823
0.06725524
0.06233264
0.05782262
0.05238189
0.04415441
0.03724522
0.03194201
0.02792485
0.0248977
0.0226556
0.02105766
0.01997572
0.01923893
0.01860689
0.01782159
0.01672677
0.01569987
0.01585093
0.01825131
0.02353997
0.03210925
0.04361317
0.05166785
0.05666745
0.05964867
0.06067839
0.05799232
0.04077219
0.08606345
0.07425996
0.06727468
0.06241231
0.05800719
0.05267601
0.04453007
0.03762131
0.03227527
0.02820599
0.02513544
0.02287053
0.02128108
0.02024833
0.01960381
0.01909493
0.01844231
0.0174701
0.01656189
0.0167842
0.01918916
0.02443101
0.03290375
0.0441992
0.05194024
0.05666874
0.05947393
0.06040261
0.05767434
0.04053652
0.08603325
0.07422089
0.06726179
0.06246473
0.05817557
0.0530033
0.04508564
0.03814851
0.0327123
0.02855589
0.02541813
0.02311454
0.02152319
0.02053275
0.01997494
0.01958371
0.0190603
0.01821241
0.0174345
0.01774956
0.02017209
0.02535053
0.03367761
0.04470998
0.05211483
0.05655542
0.05915889
0.05995932
0.05716969
0.04015682
0.0859712
0.07413207
0.06720115
0.06248812
0.05836797
0.0534995
0.04629214
0.03904311
0.03333783
0.02900653
0.02575457
0.02338442
0.02177391
0.02081528
0.02033774
0.02006013
0.01966561
0.01894868
0.0183153
0.01874636
0.02120706
0.0263253
0.03448814
0.04525139
0.05221651
0.05632415
0.05868042
0.05930362
0.05640937
0.03956726
0.0858602
0.07397407
0.06708333
0.06248295
0.05857206
0.05405713
0.04756431
0.04007851
0.03410239
0.02955453
0.02614617
0.02367587
0.02202246
0.02108087
0.02067548
0.02050775
0.0202431
0.01966655
0.01919466
0.01977092
0.02230481
0.0273868
0.03537515
0.04580212
0.05229303
0.05602102
0.05806285
0.05842086
0.05532388
0.03867141
0.0856841
0.07374808
0.06694407
0.06251547
0.05886943
0.05473286
0.04874371
0.0412375
0.03502376
0.0302201
0.02660221
0.02398637
0.0222583
0.02131509
0.02097251
0.02091059
0.02077618
0.02034937
0.0200575
0.02081811
0.02348739
0.02860277
0.03645767
0.04651442
0.05253267
0.05584014
0.05747743
0.05741952
0.05390309
0.03734042
0.08545354
0.07355135
0.06697771
0.062856
0.05959002
0.0559319
0.05046301
0.04294063
0.036325
0.03110359
0.02715759
0.02432064
0.02247494
0.02150856
0.02121876
0.02125721
0.02125047
0.0209795
0.02088603
0.02188369
0.02479689
0.03011158
0.03801633
0.04781162
0.05343198
0.05631641
0.057468
0.05679161
0.05244481
0.03548381
0.08531161
0.07381795
0.0678393
0.06429038
0.0615879
0.05858543
0.05401412
0.04607167
0.03844005
0.03237045
0.02786124
0.02468881
0.0226744
0.02166316
0.02141478
0.02154385
0.02165588
0.02154009
0.02166017
0.02296064
0.02629249
0.0321539
0.04063658
0.05067117
0.0561082
0.05865228
0.05935733
0.05800611
0.05243064
0.0336936
0.08594374
0.07603813
0.07141972
0.06888287
0.06700044
0.06475744
0.06073909
0.05242049
0.04193581
0.03411488
0.0287061
0.0250839
0.02286336
0.02179011
0.0215651
0.02176159
0.0219696
0.02199917
0.02234219
0.0240105
0.02798975
0.03501527
0.04540416
0.05746712
0.06297853
0.06523717
0.06575482
0.064313
0.05830304
0.03662021
0.09016952
0.08487555
0.08289568
0.08194785
0.08127456
0.08027639
0.07725898
0.06333814
0.04616508
0.03579183
0.02943356
0.02542005
0.02302128
0.02185841
0.02158308
0.02175715
0.02199233
0.02215884
0.02276255
0.0248404
0.02956785
0.0383367
0.05318767
0.0750252
0.07956083
0.08087818
0.08129988
0.08097692
0.07858358
0.06396813
0.09012636
0.08421999
0.08174708
0.08044385
0.07943161
0.07784257
0.07317702
0.05360421
0.04140106
0.03361519
0.02841635
0.0249206
0.02269596
0.02147611
0.02098047
0.02086078
0.02085304
0.02092621
0.02153218
0.02353239
0.02786936
0.03560035
0.04870101
0.07235356
0.07733199
0.07891759
0.07956404
0.07954735
0.07791325
0.06537497
0.08531148
0.07381598
0.06783243
0.06427145
0.06154117
0.05848792
0.05387145
0.04590685
0.03830629
0.03227946
0.02779636
0.02461738
0.02254352
0.02139594
0.02092838
0.02080275
0.02074301
0.02066811
0.02102006
0.02263638
0.02627032
0.03235613
0.04094458
0.05095922
0.05631106
0.05878528
0.05944921
0.05807502
0.0524836
0.03371707
0.08437234
0.07075244
0.06284417
0.05784666
0.0540943
0.05050282
0.04631137
0.04095137
0.03553575
0.03082869
0.02706999
0.0242686
0.02236501
0.02125031
0.02072158
0.02048094
0.02028452
0.02005242
0.02020522
0.02148479
0.02444859
0.02920412
0.03533866
0.04167711
0.04607876
0.04835662
0.04869241
0.04656568
0.03999028
0.02316724
0.08439164
0.07014497
0.06134718
0.05553607
0.05114325
0.04716387
0.04294016
0.03826524
0.03371994
0.02972183
0.02644759
0.0239389
0.02217578
0.02107735
0.02046717
0.0200837
0.01972167
0.01931348
0.0192719
0.02027702
0.02278321
0.02680019
0.03191437
0.03722029
0.04122235
0.04346492
0.04391174
0.04205666
0.03623455
0.02151252
0.08457475
0.070224
0.06106858
0.05483274
0.05003671
0.0457517
0.04137422
0.03683228
0.03260059
0.02894143
0.02594825
0.02363247
0.02196467
0.02086194
0.02015648
0.01961406
0.0190675
0.01846849
0.01824272
0.01905037
0.02130457
0.02500513
0.02981291
0.03497777
0.03909335
0.04162948
0.04253095
0.04134813
0.03650206
0.0225833
0.08473034
0.07041138
0.06112215
0.05466787
0.04961435
0.04508884
0.04050856
0.03596179
0.031856
0.0283701
0.02553976
0.02334282
0.0217286
0.02059942
0.01978419
0.01906763
0.0183196
0.01751899
0.01712671
0.01781291
0.01997186
0.02360727
0.02844204
0.033806
0.03828218
0.04125899
0.04267615
0.04209734
0.03789375
0.0239178
0.08483043
0.07055468
0.06121033
0.05463354
0.04940722
0.04470045
0.03992785
0.03535173
0.03131141
0.02792745
0.02519574
0.02306873
0.02147543
0.02029921
0.01935827
0.01845021
0.01748296
0.01647285
0.01593876
0.01657367
0.01874649
0.02244947
0.02744365
0.03310348
0.03799963
0.04141685
0.04327241
0.04311851
0.0392559
0.02494103
0.08488538
0.07063526
0.06125903
0.05460279
0.04925203
0.04441746
0.03949064
0.03489238
0.03089567
0.02757516
0.02490258
0.02281339
0.02121816
0.01997849
0.01889563
0.01777574
0.01656938
0.01534418
0.01470007
0.01534672
0.01760416
0.02143296
0.02661516
0.03255058
0.03784744
0.04165084
0.04384944
0.04398004
0.04029176
0.02563765
0.08491046
0.07066794
0.06126483
0.05454943
0.04911052
0.04419157
0.03917993
0.03455589
0.03057589
0.02728999
0.02465205
0.0225821
0.02097185
0.01965814
0.01841909
0.01706596
0.01559988
0.01415807
0.01344112
0.01415111
0.01653247
0.0205029
0.02586246
0.03204331
0.03766548
0.04179279
0.04425964
0.04458802
0.04099711
0.02608654
0.08491793
0.07067064
0.06123978
0.0544715
0.04896304
0.04396838
0.03890685
0.03427196
0.03030861
0.0270505
0.02443859
0.02238051
0.02075059
0.01935938
0.01795664
0.01635567
0.01461692
0.01296603
0.01221048
0.0130126
0.01552676
0.0196289
0.02513876
0.03152182
0.03740815
0.04180783
0.04449047
0.04496569
0.04143894
0.02635947
0.08491625
0.07065749
0.06119699
0.05437392
0.04879195
0.04371054
0.03862341
0.03400438
0.03007266
0.02684696
0.02426022
0.02221229
0.02056367
0.0191006
0.0175443
0.01570763
0.01370911
0.0118682
0.01108483
0.01196714
0.01459014
0.01879568
0.0244225
0.03097243
0.03707665
0.04171132
0.0445745
0.0451656
0.04168816
0.02651031
0.08491088
0.07063885
0.0611504
0.05427541
0.04862034
0.04344226
0.03835052
0.03376469
0.02987223
0.02667985
0.0241162
0.02207702
0.02041384
0.01889601
0.01722556
0.01521349
0.01301142
0.01100703
0.0101643
0.01106383
0.01373868
0.01800079
0.02369545
0.03036729
0.0366747
0.04152976
0.04455372
0.04524117
0.04180493
0.02657922
0.08490513
0.07062158
0.06111103
0.05419542
0.04848167
0.04321869
0.03813139
0.03357775
0.02971888
0.02655288
0.02400602
0.02197251
0.02030087
0.0187552
0.01703273
0.01494353
0.01263821
0.01051391
0.009552554
0.01036841
0.01301258
0.01726822
0.02295886
0.02968221
0.03620911
0.04129531
0.04447046
0.0452402
0.04183871
0.02659739
0.08490097
0.07060983
0.0610861
0.0541482
0.04840283
0.04309378
0.03800538
0.03346495
0.0296224
0.02646971
0.02393039
0.02189853
0.02022575
0.01868394
0.01698127
0.01493043
0.01265115
0.01047902
0.009344774
0.009965673
0.01248503
0.01667445
0.02230318
0.02900204
0.03575685
0.04106425
0.04437019
0.04520512
0.04183061
0.02658992
0.08489936
0.0706053
0.0610766
0.05413065
0.04837504
0.04305479
0.03796191
0.03342254
0.02958291
0.02643189
0.02389162
0.0218582
0.0201922
0.01868603
0.01707577
0.01518244
0.01306522
0.01093476
0.009599597
0.009936705
0.01224415
0.01632821
0.02190397
0.02860021
0.03547715
0.0409099
0.04429491
0.04517026
0.04181333
0.02657803
0.0849007
0.07060856
0.06108253
0.05414067
0.04839218
0.04308538
0.03798872
0.03344464
0.02959884
0.02644051
0.02389309
0.02185691
0.02020543
0.01875886
0.01729061
0.01562997
0.01376404
0.01177607
0.01027982
0.01030698
0.01234673
0.01628696
0.02180007
0.0284839
0.03538158
0.04085343
0.04426484
0.04515436
0.04180497
0.02657471
0.08490491
0.07061951
0.06110428
0.05418039
0.04845328
0.04316652
0.03808203
0.03353073
0.02966968
0.02649559
0.02393597
0.02189688
0.02026516
0.01888802
0.01757311
0.01615179
0.0145443
0.01274334
0.0111936
0.01098668
0.01277044
0.01654963
0.02198166
0.02861035
0.03546114
0.04089335
0.04428004
0.04515695
0.04180428
0.02657825
0.08491139
0.0706371
0.06114093
0.05424994
0.04856779
0.04333964
0.03825907
0.0336859
0.02979596
0.02659622
0.02401931
0.02197694
0.02036784
0.01906089
0.01788754
0.01667535
0.01529429
0.01367788
0.01215735
0.01181537
0.01340875
0.01705473
0.02242134
0.02899051
0.03570643
0.04101681
0.04432503
0.04516078
0.04179293
0.02657532
0.08491896
0.07065881
0.06118856
0.05434439
0.04872647
0.04357861
0.03850441
0.03389932
0.02997085
0.02673874
0.0241409
0.02209465
0.02050908
0.01926966
0.01822285
0.01718843
0.01599786
0.01454354
0.01309829
0.01270395
0.01418061
0.01774065
0.02308093
0.0296047
0.03610165
0.0411974
0.04437059
0.04513571
0.04174066
0.02654632
0.0849256
0.07068024
0.06123955
0.05444958
0.04891008
0.04387615
0.03879671
0.03415358
0.03018421
0.02691823
0.02429841
0.02224792
0.02068558
0.01951015
0.0185774
0.01769708
0.01666947
0.01535545
0.01400728
0.01361842
0.0150361
0.01854017
0.02386298
0.03033929
0.03655487
0.04137582
0.04437266
0.04504145
0.04160855
0.02646783
0.0849279
0.07069413
0.06128125
0.05454018
0.04906452
0.04410423
0.03905575
0.03441056
0.03042085
0.02712954
0.02448984
0.02243466
0.02089406
0.01977889
0.01895101
0.01820894
0.01732645
0.01613844
0.01489906
0.01455457
0.01594896
0.01939102
0.02463084
0.03096183
0.03692216
0.04147617
0.04427922
0.04482961
0.04134849
0.02631041
0.08492037
0.07069082
0.06130374
0.0546113
0.04920192
0.0443058
0.03931067
0.03468672
0.03068935
0.02737611
0.02471481
0.02265144
0.02112886
0.02006962
0.0193398
0.018726
0.01797869
0.01691067
0.01578958
0.01551753
0.01691267
0.02028376
0.0253902
0.03151115
0.03719802
0.04146686
0.04404632
0.04444704
0.04090142
0.02603486
0.08489458
0.07065644
0.06129496
0.05466019
0.04933949
0.04452618
0.03962134
0.03502861
0.03101777
0.02767105
0.02497602
0.02289396
0.02138132
0.02037179
0.0197342
0.01924244
0.01862607
0.01767918
0.01668791
0.01651351
0.01793295
0.02123431
0.02617846
0.03204121
0.03740349
0.04133926
0.0436428
0.04384154
0.04019685
0.02558755
0.08483833
0.07057316
0.06124236
0.05468614
0.04948966
0.04480913
0.04007368
0.03550048
0.03144459
0.02803331
0.02527849
0.02315742
0.02164013
0.02067077
0.02011923
0.01974534
0.01925919
0.01843982
0.01759339
0.01754504
0.0190213
0.0222732
0.02704971
0.03262219
0.0375942
0.04113104
0.04308094
0.04298901
0.03916705
0.02489611
0.08473659
0.07042641
0.06114917
0.05471402
0.04968925
0.04519501
0.04066071
0.03611743
0.03199388
0.02848061
0.0256281
0.02343667
0.02189239
0.02094957
0.0204769
0.02021759
0.01986242
0.01917964
0.01849599
0.01860942
0.02019473
0.02345281
0.02809824
0.03337993
0.03792686
0.04100656
0.04250525
0.04198089
0.03781431
0.02388037
0.08457918
0.07023534
0.06109038
0.05487231
0.05010439
0.04585358
0.04152068
0.03698711
0.03273848
0.02905245
0.02603825
0.02372803
0.02212527
0.02119188
0.02079038
0.02064264
0.0204187
0.01988111
0.01937921
0.01970022
0.02147946
0.02486565
0.0295137
0.03460924
0.03878843
0.04141157
0.0423819
0.04124566
0.03643265
0.02255388
0.08439436
0.07015291
0.06136442
0.05557084
0.05120902
0.04727324
0.04311512
0.0384398
0.03386588
0.02983427
0.02653686
0.0240329
0.02233089
0.02138803
0.02105
0.02100989
0.02091474
0.02052734
0.02022475
0.02081019
0.02291431
0.0266618
0.03164059
0.03689653
0.04095966
0.0432788
0.0437842
0.04196816
0.03617468
0.02148998
0.08437362
0.07075747
0.06285699
0.05787511
0.05415165
0.0506026
0.04646606
0.04111911
0.03567951
0.03093751
0.02715449
0.02435752
0.02251261
0.02154276
0.02125969
0.02131939
0.02134506
0.0211064
0.02101596
0.02192928
0.02454081
0.02904986
0.03506288
0.04137812
0.04585151
0.04820351
0.04859021
0.04649484
0.03994183
0.02315056
0.08531161
0.07381813
0.06783991
0.06429174
0.06159038
0.05858986
0.05401987
0.04607533
0.0384524
0.0323832
0.02787266
0.0246984
0.02268278
0.02167232
0.02142828
0.02156638
0.02169201
0.02159278
0.02172121
0.02301631
0.02633396
0.03218161
0.04065605
0.05069015
0.05613419
0.05867897
0.05938283
0.05803008
0.05245263
0.03370694
0.09012543