/*--------------------------------*- C++ -*----------------------------------*\
| =========                 |                                                 |
| \\      /  F ield         | OpenFOAM: The Open Source CFD Toolbox           |
|  \\    /   O peration     | Version:  2506                                  |
|   \\  /    A nd           | Website:  www.openfoam.com                      |
|    \\/     M anipulation  |                                                 |
\*---------------------------------------------------------------------------*/
FoamFile
{
    version     2.0;
    format      ascii;
    arch        "LSB;label=32;scalar=64";
    class       volScalarField;
    location    "250/airRegion";
    object      nut;
}
// * * * * * * * * * * * * * * * * * * * * * * * * * * * * * * * * * * * * * //

dimensions      [0 2 -1 0 0 0 0];

internalField   nonuniform List<scalar> 
85779
(
0.0921804
0.09255074
0.09234837
0.09211334
0.09185254
0.09138183
0.09010471
0.08590598
0.07342641
0.06846145
0.06696259
0.06763565
0.07022653
0.07449979
0.07955107
0.0836042
0.08426731
0.07905863
0.07097874
0.06485481
0.06350349
0.06791577
0.08037958
0.08860614
0.09069215
0.09111043
0.09072466
0.08817658
0.07419858
0.02015463
0.09228582
0.09278243
0.09240532
0.0918713
0.09123744
0.09017509
0.08771609
0.08166588
0.07337876
0.06972632
0.06841793
0.06892504
0.071213
0.07510715
0.0797651
0.08352114
0.08411927
0.07914475
0.07128473
0.06536787
0.06413245
0.06777088
0.07559766
0.08512973
0.08847152
0.08917613
0.08840805
0.08455337
0.06886584
0.01893194
0.09210889
0.09233753
0.09174207
0.0909891
0.09009755
0.0885811
0.08496718
0.07806018
0.07353264
0.07096218
0.06990637
0.07030679
0.07225637
0.07562518
0.07966361
0.08289248
0.08328707
0.0785449
0.07087195
0.064951
0.06337164
0.06602008
0.07221352
0.08267735
0.08641111
0.08721681
0.08649349
0.08293465
0.06862678
0.0191384
0.09206376
0.09210229
0.09133319
0.09041694
0.08931011
0.08724248
0.08220364
0.0763349
0.07298082
0.07119079
0.07054419
0.07105054
0.07282555
0.0757551
0.07917481
0.08180599
0.0818981
0.07728284
0.06963405
0.06350959
0.0615174
0.06360799
0.06955509
0.08129045
0.08521757
0.08611723
0.08559374
0.08256828
0.0694224
0.01930772
0.09207993
0.09203355
0.09116291
0.09014124
0.08889371
0.08660904
0.08137047
0.07453103
0.07186256
0.07070287
0.07048533
0.07118596
0.07288971
0.07546494
0.07829966
0.08029636
0.08000015
0.07541971
0.06772712
0.0614324
0.05929411
0.06138773
0.06774148
0.08055092
0.08463733
0.08564406
0.0853177
0.08269534
0.07023334
0.01942617
0.09210682
0.0920276
0.09110139
0.09000863
0.08863883
0.08604525
0.08011637
0.07353053
0.07122077
0.07034353
0.07031755
0.07108079
0.07266221
0.07487411
0.07710736
0.07840978
0.07763694
0.0730369
0.06534039
0.05905429
0.05709872
0.05955764
0.06649752
0.08012989
0.08437034
0.08548221
0.08530458
0.08291431
0.07063551
0.0195095
0.09212792
0.0920354
0.09107672
0.08993229
0.08844796
0.08538114
0.07793094
0.07310819
0.07102981
0.0702489
0.07023033
0.07091848
0.07229672
0.07409859
0.07567773
0.07620104
0.07485878
0.07021012
0.06260509
0.05654103
0.05502936
0.05802977
0.06556089
0.07985066
0.08423967
0.08544606
0.08537511
0.08312366
0.07091248
0.01956593
0.09214079
0.09204115
0.09106129
0.0898766
0.08828875
0.08488286
0.07698608
0.07298286
0.07103035
0.07018163
0.0700906
0.07067755
0.07184117
0.07321151
0.07408298
0.07373733
0.071738
0.06702388
0.05961304
0.05395949
0.05306919
0.05668355
0.06477003
0.07962686
0.08415786
0.08544723
0.08545352
0.08328868
0.07110621
0.01960354
0.09214717
0.09204182
0.09104625
0.08983143
0.08817586
0.08459745
0.07629828
0.07251152
0.07071422
0.06993443
0.06986122
0.070393
0.07135972
0.07229017
0.07241134
0.07112532
0.06840397
0.06361285
0.05646974
0.05135674
0.05118764
0.05543298
0.06403599
0.07941305
0.08408407
0.08544848
0.08551323
0.08340485
0.07123567
0.01962797
0.09214941
0.09203807
0.09102758
0.08978119
0.08805647
0.0843559
0.07585779
0.07215177
0.07045913
0.06974538
0.06969015
0.07016452
0.07093331
0.07142333
0.07078761
0.06854759
0.06508822
0.06020795
0.05334562
0.04881124
0.04937778
0.05422675
0.06330806
0.07917837
0.0839977
0.08543559
0.08554831
0.08347886
0.07131705
0.01964313
0.09214942
0.09203141
0.09100367
0.08971316
0.08787724
0.08400685
0.07555423
0.07203633
0.07042902
0.06973258
0.06965144
0.07004179
0.07061227
0.07069741
0.06937969
0.0662818
0.06214473
0.05715518
0.0505059
0.04646399
0.04767693
0.05304059
0.06252964
0.07887138
0.08387627
0.08540105
0.08555996
0.08352001
0.0713639
0.01965187
0.09214845
0.09202387
0.09097764
0.08962696
0.08760227
0.08338717
0.07537186
0.07209252
0.07053277
0.06982196
0.06969437
0.06999743
0.07040208
0.07017998
0.06836449
0.06464068
0.05997773
0.05486353
0.04829773
0.04453394
0.04619972
0.05190502
0.0616118
0.07837887
0.08367064
0.08533344
0.08555036
0.08353707
0.07138713
0.01965628
0.09214729
0.09201733
0.0909554
0.08954626
0.08729229
0.08246916
0.07534076
0.07222455
0.07065907
0.06991508
0.06974261
0.06998165
0.07028662
0.06990627
0.06785701
0.06384266
0.05890771
0.0537057
0.04708584
0.04329669
0.04516694
0.05101378
0.06055156
0.0772863
0.08326369
0.08521444
0.08552192
0.0835378
0.07139546
0.01965799
0.0921464
0.09201316
0.09094252
0.08950256
0.08704262
0.08131832
0.07531059
0.07221075
0.0706602
0.06992432
0.06974421
0.06996528
0.0702572
0.06989513
0.06791867
0.0640138
0.05914623
0.05394644
0.04713685
0.04294016
0.0446994
0.05057033
0.05968221
0.07439399
0.0825258
0.08505237
0.08548466
0.08353046
0.07139593
0.01965825
0.09214606
0.09201161
0.0909382
0.08949076
0.08700861
0.08122898
0.07523226
0.07215863
0.07062797
0.06990218
0.06972644
0.06996301
0.07032502
0.07016468
0.06859162
0.06523497
0.06080422
0.05568561
0.04851603
0.04345945
0.04460409
0.05019398
0.05902414
0.07201821
0.08209176
0.0849606
0.08546027
0.08352327
0.07139379
0.01965801
0.09214635
0.09201258
0.09094105
0.08950243
0.08714243
0.08203313
0.07512215
0.07212959
0.07061659
0.06988702
0.06971449
0.06998885
0.07048793
0.07068054
0.06978413
0.0673344
0.06364086
0.0586853
0.0510646
0.04489471
0.04506702
0.0501783
0.05876948
0.07309055
0.08212139
0.08493907
0.08545109
0.08351936
0.07139186
0.01965779
0.09214725
0.092016
0.09095028
0.08952375
0.08710984
0.08154032
0.07541187
0.0722303
0.07062517
0.06986502
0.06969826
0.07003116
0.07070948
0.07132919
0.07122559
0.0698364
0.06702959
0.06229609
0.05419474
0.04694763
0.04606059
0.05065003
0.05906988
0.07191678
0.08205431
0.08494739
0.08545393
0.08351843
0.07139002
0.01965756
0.09214861
0.09202189
0.09096776
0.08957716
0.0873513
0.08250199
0.07543318
0.07218707
0.07054427
0.06978139
0.06964733
0.07006728
0.07095141
0.07201144
0.0726862
0.07232808
0.07040851
0.06592885
0.05738425
0.04920179
0.04732921
0.05140739
0.05972465
0.07394287
0.08238939
0.08501575
0.08546905
0.08351794
0.07138555
0.01965675
0.09215015
0.09202949
0.09099196
0.08965463
0.08752718
0.08242613
0.075707
0.07216849
0.07044302
0.0696778
0.06958607
0.07010704
0.07120481
0.07268448
0.07406329
0.07461966
0.07349443
0.06924622
0.06031757
0.05136797
0.04862098
0.05222681
0.06068302
0.07545471
0.0828698
0.08513691
0.08549286
0.08351289
0.07137364
0.01965446
0.09215141
0.09203759
0.09101948
0.08975178
0.08794904
0.08400129
0.07566994
0.07201985
0.0703264
0.06960259
0.0695666
0.07018973
0.07149141
0.07335346
0.07534761
0.07668205
0.07622255
0.07214644
0.06291211
0.05341063
0.04996141
0.05311171
0.06175104
0.07799564
0.08353886
0.08528266
0.08551259
0.08349488
0.0713476
0.01964953
0.0921516
0.09204386
0.09104051
0.08981105
0.0881222
0.08446669
0.0760414
0.07227071
0.0704939
0.06972225
0.06968161
0.07036688
0.0718402
0.07403936
0.07656579
0.07855278
0.07862907
0.07465233
0.06521124
0.05542919
0.05154927
0.05433959
0.06282649
0.07881903
0.08382698
0.08535594
0.08550748
0.0834532
0.07129886
0.01964044
0.09214938
0.09204704
0.09105647
0.08985237
0.08821915
0.08467866
0.07648201
0.07268203
0.07081362
0.06996385
0.06989062
0.07061678
0.07224172
0.07474526
0.07773959
0.08027602
0.08077146
0.07681844
0.0672521
0.05738655
0.05322495
0.05561661
0.06370805
0.07919262
0.08396551
0.08538349
0.08547521
0.08337885
0.07121667
0.01962518
0.09214286
0.09204587
0.09107011
0.08989362
0.08832416
0.08497054
0.07723852
0.07315762
0.07111038
0.0701761
0.07008506
0.07086819
0.07265247
0.07544989
0.07887036
0.08187694
0.08269267
0.07869475
0.06907195
0.05926455
0.05492207
0.05690403
0.06452043
0.07947235
0.08406215
0.08538921
0.08541725
0.08326297
0.07108757
0.01960087
0.09212968
0.09203958
0.09108474
0.08994855
0.08849332
0.08557448
0.07842078
0.073147
0.0710253
0.07017762
0.07016921
0.07106046
0.07302694
0.07611931
0.07993945
0.08335558
0.08440993
0.08031347
0.07070626
0.06108201
0.05665953
0.05825781
0.06536674
0.0797301
0.08415788
0.08539328
0.08534084
0.08309905
0.07089522
0.01956361
0.09210818
0.09203106
0.09110853
0.09002494
0.08868717
0.08621384
0.08056031
0.07361308
0.0712164
0.07029678
0.07028736
0.07123503
0.07335051
0.07671656
0.08091066
0.08468814
0.08591416
0.08168235
0.07217147
0.06286208
0.05848933
0.0597677
0.06634177
0.08003261
0.08429967
0.08543455
0.08527282
0.08289136
0.0706199
0.01950767
0.09208086
0.09203627
0.09116917
0.09015667
0.08893745
0.08674164
0.08170027
0.07471586
0.07191845
0.07069757
0.0704971
0.07136929
0.07355961
0.07716909
0.08172165
0.08582858
0.08717312
0.08277909
0.07343938
0.06458417
0.0604469
0.06154958
0.06759353
0.08046617
0.08457485
0.08560115
0.08528867
0.08267387
0.07021506
0.01942493
0.0920643
0.09210438
0.09133882
0.090433
0.08936166
0.08740866
0.08245282
0.07628437
0.07287499
0.07112046
0.07055106
0.07124762
0.07348311
0.07735172
0.08228548
0.08671592
0.08813827
0.08354863
0.07441131
0.06612127
0.0624644
0.06369407
0.06936126
0.08119895
0.08515767
0.08607794
0.08556759
0.0825491
0.06940601
0.019307
0.09210917
0.09233898
0.09174618
0.09100016
0.09012814
0.088666
0.08515567
0.07821758
0.07361207
0.0710083
0.06998596
0.07054849
0.07292108
0.0771456
0.08252677
0.08729386
0.08875754
0.08391707
0.07491743
0.06718096
0.06420912
0.0660561
0.07192258
0.08254826
0.08634603
0.08718014
0.08647084
0.08291868
0.06861455
0.01913808
0.09228593
0.09278327
0.09240785
0.09187793
0.09125387
0.09021247
0.08778209
0.08173773
0.07346913
0.06981398
0.06854239
0.06920439
0.07189216
0.07657852
0.08244296
0.08752847
0.08897961
0.08384332
0.07480312
0.06737354
0.06497451
0.06782949
0.07523044
0.08495125
0.08840189
0.08914494
0.08839135
0.08454217
0.06885758
0.01893186
0.09218039
0.09255092
0.09234911
0.09211552
0.09185812
0.09139338
0.09011075
0.08581289
0.07348136
0.06854981
0.06710341
0.06793643
0.07091749
0.0759438
0.08211499
0.08736628
0.08874439
0.08333983
0.07415998
0.06668991
0.06426963
0.06784212
0.07995119
0.08845848
0.0906483
0.09109579
0.09071843
0.08817275
0.07419567
0.02015463
0.09228582
0.09278244
0.09240538
0.09187159
0.09123893
0.09018249
0.08774287
0.08168062
0.07338925
0.06973541
0.06842588
0.06893376
0.07123078
0.07515339
0.0798697
0.08370912
0.08438597
0.0794552
0.07158049
0.06562168
0.06433239
0.06787716
0.07559019
0.08511299
0.08846726
0.08917546
0.08840883
0.08455565
0.06887029
0.01893246
0.09172449
0.09310485
0.0934363
0.09284329
0.09164229
0.0896546
0.08615023
0.08070278
0.07524369
0.07177753
0.07018184
0.07032686
0.07223671
0.07574251
0.08004656
0.08357533
0.08417484
0.07948062
0.07182384
0.06600781
0.06477045
0.06798899
0.07425574
0.08100708
0.08471339
0.08539386
0.08312008
0.07540165
0.0548672
0.01432566
0.09096462
0.0918273
0.0922863
0.09178542
0.0904569
0.08821322
0.08455418
0.08022309
0.07620987
0.07333658
0.07181121
0.07175205
0.07326621
0.076215
0.07988145
0.08286704
0.0832492
0.0788003
0.07138761
0.06562043
0.0641314
0.06664408
0.07168799
0.07732165
0.08068742
0.08113497
0.07837877
0.07016176
0.05048461
0.01374233
0.09065095
0.09092298
0.09099663
0.09025591
0.08872701
0.0863292
0.08294307
0.07919132
0.07601663
0.0737476
0.0725278
0.07250565
0.07380057
0.07628414
0.07931404
0.08168206
0.08174513
0.07744289
0.0701368
0.06423515
0.06235544
0.06424934
0.06862415
0.07395
0.07725879
0.07783356
0.07546755
0.06819929
0.05018501
0.01410375
0.0905738
0.09054369
0.09028169
0.08925252
0.08747739
0.08484009
0.08128427
0.07777308
0.07510961
0.07333897
0.07247336
0.07260208
0.07380161
0.07591596
0.07834277
0.08004915
0.07970103
0.07544984
0.06817001
0.06211797
0.0600061
0.0616832
0.066017
0.07162824
0.07517882
0.07611863
0.07439314
0.06817108
0.05129681
0.01446928
0.09057531
0.0904247
0.08996862
0.08873057
0.08674438
0.08384855
0.08016172
0.07675627
0.07433461
0.07282676
0.07216508
0.07237623
0.0734696
0.07522342
0.07702862
0.07800178
0.07714596
0.07288672
0.06565392
0.0595929
0.05755194
0.05941695
0.06410236
0.07023821
0.07415338
0.07549668
0.07432473
0.06883181
0.05250002
0.01472626
0.09059189
0.09039654
0.08983735
0.08846632
0.08632096
0.08317294
0.0793795
0.07610828
0.07384321
0.07245482
0.07185756
0.07205097
0.07297901
0.07432841
0.07544474
0.07557944
0.07411458
0.06982122
0.06272422
0.05686354
0.05518984
0.05751329
0.0627152
0.06941417
0.07369242
0.07538481
0.07461576
0.06957755
0.05348334
0.01489708
0.0906044
0.09038945
0.08977233
0.08831604
0.08605462
0.08269484
0.07884006
0.07569451
0.07348817
0.07212853
0.07153941
0.07168108
0.07241549
0.07331567
0.07365695
0.07283297
0.07066485
0.0663353
0.05948508
0.0540304
0.05295132
0.05587817
0.06163656
0.06886312
0.0734625
0.07543545
0.07494828
0.07019122
0.05420183
0.01500856
0.09060968
0.09038089
0.08972567
0.08821143
0.08587008
0.08236247
0.07836778
0.0752501
0.07310459
0.07179609
0.07122864
0.07132061
0.07184965
0.07226195
0.07174597
0.06985842
0.06692173
0.06256979
0.05605633
0.0511594
0.05081451
0.05440224
0.06070445
0.06839759
0.07328926
0.07549087
0.07520558
0.07062865
0.05469033
0.01507977
0.09060908
0.0903656
0.08967769
0.08811326
0.08570768
0.08209988
0.07803802
0.07493708
0.0728355
0.07156443
0.07100513
0.07103518
0.0713474
0.07125337
0.06984352
0.06685614
0.06314365
0.05878213
0.05263001
0.04834143
0.04876604
0.05300172
0.0598079
0.06792512
0.07309836
0.07549474
0.07536276
0.0709084
0.0550017
0.01512335
0.09060485
0.09034451
0.08962279
0.08800481
0.08553752
0.08188504
0.07786355
0.07481556
0.0727434
0.07147951
0.0708999
0.07085153
0.07095231
0.07039028
0.06816334
0.06418128
0.05976529
0.05537311
0.04950494
0.0457303
0.04683771
0.05163813
0.05887056
0.06736221
0.07284825
0.07543065
0.07542842
0.07106486
0.05518395
0.01514807
0.09059931
0.09032225
0.08956753
0.08789273
0.08535675
0.08170246
0.07778092
0.07479576
0.07274606
0.0714779
0.07086829
0.07074588
0.07067822
0.06976951
0.06695536
0.06225752
0.05728955
0.05281139
0.04706597
0.04355681
0.04514146
0.05036191
0.05789106
0.06666939
0.07249299
0.07529105
0.07541971
0.0711321
0.05527623
0.01516024
0.09059428
0.09030356
0.08952231
0.08779942
0.08519586
0.08156492
0.07774768
0.07480635
0.07276564
0.07148815
0.07085279
0.07068042
0.0705189
0.06944197
0.06636319
0.06134023
0.0560777
0.05150657
0.04571076
0.04210502
0.04387108
0.04933939
0.0569842
0.06582501
0.07199838
0.07507909
0.07535777
0.07114098
0.0553103
0.01516465
0.09059094
0.09029177
0.08949512
0.08774298
0.08507519
0.0814373
0.07765654
0.07474745
0.07273002
0.07146108
0.07082039
0.07063539
0.07047115
0.06943066
0.06644957
0.06155645
0.05635673
0.05175157
0.04574902
0.04161757
0.04316792
0.0486882
0.05632644
0.06497485
0.07143483
0.07484456
0.07527624
0.07112129
0.055313
0.01516492
0.09058966
0.09028732
0.08948519
0.08772386
0.0850392
0.08137973
0.07760085
0.07470258
0.07269443
0.07142895
0.07078924
0.07062259
0.07054807
0.06976418
0.06728564
0.06303479
0.05828472
0.05368162
0.0472923
0.04220774
0.04303005
0.04828216
0.05579775
0.0643577
0.07107563
0.07468975
0.07521542
0.0710991
0.05530617
0.01516394
0.09059054
0.09029002
0.08949095
0.08773637
0.08507245
0.08138592
0.0776067
0.07470904
0.07269202
0.0714172
0.07077815
0.07065349
0.07074548
0.07040425
0.06877726
0.0656068
0.06162484
0.05707131
0.05016669
0.04390002
0.04361477
0.04834407
0.05565276
0.06418349
0.07096663
0.07463307
0.07518952
0.07108685
0.05530057
0.01516332
0.09059357
0.0903
0.08951301
0.08777773
0.08513861
0.08152406
0.07771587
0.07476416
0.07270971
0.07141587
0.07078163
0.07071784
0.07101679
0.0711935
0.07054075
0.06862385
0.06558571
0.06116215
0.05370153
0.04632602
0.0448439
0.04891478
0.05595788
0.06434218
0.07103987
0.07466495
0.07519783
0.07108442
0.0552957
0.01516293
0.09059857
0.09031715
0.08955196
0.08785464
0.08527967
0.0816493
0.07778719
0.07478149
0.07269433
0.07139279
0.07078006
0.07079666
0.07131639
0.07199802
0.07225685
0.0715216
0.06943694
0.06522894
0.05727505
0.04897035
0.04641299
0.04982437
0.05660637
0.06489674
0.07133999
0.07478533
0.07523259
0.07108122
0.05528054
0.01516104
0.09060481
0.09033942
0.08960438
0.08795876
0.0854407
0.08185941
0.07788974
0.07480147
0.07267658
0.07137002
0.07078704
0.07089364
0.07163027
0.07276801
0.07381309
0.07409276
0.07286263
0.06888796
0.06053533
0.05151027
0.0480586
0.05085066
0.05741646
0.06570421
0.07182769
0.07497634
0.07527528
0.07105728
0.05523612
0.01515497
0.09061101
0.09036323
0.08966193
0.08807459
0.08563224
0.08197131
0.07790951
0.07479984
0.072679
0.07138768
0.07084151
0.07103721
0.07197468
0.07351234
0.07521931
0.07634016
0.07582531
0.07204425
0.06338587
0.05386446
0.04973604
0.05197102
0.05829993
0.06660825
0.07237609
0.075172
0.07528933
0.07098296
0.05513629
0.01514133
0.0906152
0.09038302
0.08971157
0.08817182
0.0857963
0.08222622
0.07816607
0.07502389
0.07286585
0.07154873
0.07100645
0.07126526
0.07237446
0.07425794
0.07652283
0.07833582
0.07839646
0.0747413
0.06586664
0.05608834
0.051541
0.05333024
0.05935003
0.0673933
0.0727591
0.07528038
0.07523073
0.0708223
0.05494828
0.01511561
0.09061547
0.09039654
0.08975413
0.08825803
0.08594118
0.08247838
0.07851673
0.07538331
0.07318584
0.07182506
0.07126706
0.07157085
0.07282965
0.07501802
0.07776231
0.08014928
0.08066102
0.07705562
0.06803724
0.05818858
0.05339738
0.05477385
0.06037687
0.06800841
0.07300999
0.0752983
0.07507749
0.07054014
0.05463335
0.01507167
0.09060972
0.09040367
0.08979771
0.08835674
0.0861172
0.08280561
0.07899771
0.07582862
0.07356011
0.072143
0.07156625
0.07191349
0.07331432
0.07578318
0.0789517
0.08182188
0.08267959
0.07905299
0.06995526
0.06018238
0.05527828
0.05627538
0.06141191
0.0685759
0.07321396
0.07525539
0.07482386
0.07010281
0.054144
0.01500075
0.09059657
0.09040939
0.08986087
0.08850522
0.08638467
0.08329807
0.07952564
0.07621035
0.07388
0.0724338
0.07185572
0.07225257
0.07379207
0.07652535
0.08007886
0.08336233
0.08447877
0.08077319
0.07166463
0.06210188
0.05721523
0.05789476
0.06254659
0.0691885
0.07347239
0.07521756
0.07449701
0.06949204
0.05342732
0.01489011
0.0905792
0.09043587
0.08999012
0.08876849
0.08681104
0.08397856
0.08029878
0.07684868
0.07438037
0.07282989
0.07218707
0.07258287
0.07422589
0.07719887
0.08110662
0.08474971
0.08605293
0.08222436
0.07317797
0.06396375
0.05926017
0.05975244
0.06396622
0.07005865
0.07395987
0.0753432
0.07421338
0.06875112
0.05244765
0.0147205
0.09057686
0.09055313
0.09030115
0.08928891
0.08754351
0.08496687
0.0814462
0.07789092
0.07517245
0.07336561
0.07252322
0.07282386
0.0745211
0.07771726
0.08196834
0.08593806
0.0873703
0.0833803
0.07445361
0.06571705
0.06140644
0.06194575
0.06588336
0.0714672
0.07500461
0.07597793
0.07428968
0.0680957
0.05124759
0.0144649
0.09065323
0.09093083
0.09101423
0.09029114
0.08879218
0.08644198
0.08298637
0.07919
0.07600641
0.07374736
0.07257922
0.07273285
0.07449078
0.07794792
0.0825749
0.08686686
0.08838293
0.08418291
0.07537969
0.06719024
0.06348635
0.06442367
0.06845808
0.07377926
0.07709498
0.07770474
0.07537316
0.06813062
0.05014116
0.01410068
0.09096617
0.09183322
0.09230017
0.09181393
0.09051154
0.08830902
0.0846902
0.08034432
0.07629337
0.07339645
0.07190096
0.07199935
0.0739412
0.07777456
0.08285236
0.08748171
0.08904232
0.08456278
0.0757957
0.06808182
0.06507082
0.06675258
0.07147315
0.07712293
0.08053206
0.08102293
0.07829928
0.07010409
0.05044804
0.01374035
0.09172536
0.09310847
0.09344521
0.0928626
0.09168124
0.08972456
0.08624786
0.0808123
0.07535832
0.07186739
0.07029711
0.07059198
0.07290604
0.07722892
0.08279852
0.0877497
0.08930719
0.08448916
0.07560133
0.06811808
0.06559656
0.06806499
0.07399595
0.08079204
0.08458111
0.08531277
0.0830673
0.07536386
0.05484227
0.01432463
0.09228594
0.09278328
0.0924079
0.09187804
0.09125385
0.09020755
0.08767054
0.08096016
0.0735965
0.06985933
0.06855748
0.06921194
0.07190029
0.07659707
0.08248594
0.08760841
0.08909964
0.08399295
0.07494997
0.06748593
0.06504316
0.06786566
0.07524646
0.0849544
0.08840301
0.08914562
0.0883924
0.0845445
0.06886211
0.01893237
0.09210891
0.09233762
0.09174238
0.0909905
0.09010577
0.08863287
0.08520962
0.07810808
0.07354765
0.07097896
0.0699238
0.07032862
0.07230477
0.07575157
0.07994672
0.08339904
0.08400519
0.07937299
0.0716211
0.06550035
0.06370042
0.06615402
0.0722066
0.08266404
0.08641018
0.08722063
0.08649979
0.08294354
0.06863854
0.01913944
0.09096468
0.09182753
0.09228684
0.09178679
0.09046136
0.08822891
0.08458569
0.08023792
0.07622165
0.0733486
0.0718225
0.07176607
0.07329747
0.07629592
0.08006122
0.08318745
0.08370311
0.07932343
0.07185951
0.065959
0.06432655
0.06673168
0.07171093
0.07732874
0.0806946
0.08114461
0.07839187
0.07017866
0.05050157
0.01374507
0.08980722
0.08975969
0.09061602
0.0909068
0.09017729
0.08834302
0.08528824
0.08164353
0.07812704
0.07534362
0.07363569
0.07323421
0.0742876
0.07668239
0.079779
0.0823309
0.0826057
0.07850175
0.07142059
0.06575588
0.0641014
0.06610208
0.07010432
0.07418132
0.07639922
0.07589248
0.07169147
0.06165051
0.04195027
0.01139356
0.08929906
0.08833305
0.08863527
0.08884853
0.08831001
0.08679879
0.08432868
0.08134819
0.07842615
0.07602074
0.07445898
0.07398863
0.07475766
0.07664926
0.07907873
0.08097614
0.08090317
0.07697864
0.07015594
0.06453684
0.06263635
0.06407675
0.06724628
0.07042197
0.07201674
0.07115483
0.06680471
0.05709564
0.03886221
0.01097918
0.08913971
0.08771124
0.08747716
0.08728688
0.08653647
0.08498074
0.08268959
0.08009313
0.07764117
0.07565496
0.074379
0.07401256
0.07465835
0.07616053
0.07795648
0.07914582
0.07862489
0.07477663
0.06810381
0.06243239
0.06028392
0.06133415
0.06408229
0.06697635
0.06853214
0.06794497
0.06424748
0.05565651
0.03878626
0.01124917
0.08910802
0.08750059
0.0869625
0.0864469
0.08542734
0.08367482
0.08134608
0.07887979
0.07666912
0.07495142
0.07389473
0.07363037
0.07418512
0.07532298
0.07645942
0.07685133
0.07577572
0.07193858
0.06540241
0.0597462
0.05756721
0.05859698
0.0614121
0.06454053
0.06645017
0.06643168
0.06356187
0.05600402
0.03990257
0.01157685
0.08911089
0.08744213
0.08675491
0.0860416
0.08482047
0.08286951
0.08043624
0.07799502
0.07588733
0.0742986
0.07335061
0.07311732
0.07353773
0.07426232
0.07464526
0.07410366
0.07236289
0.06851831
0.06219267
0.05673212
0.05482568
0.05619029
0.05941
0.06303372
0.06543082
0.06599417
0.06381543
0.05696963
0.04118171
0.01182202
0.08911722
0.08742528
0.0866626
0.08583467
0.0844802
0.08237295
0.07983815
0.07737718
0.0752961
0.07375859
0.07285405
0.07260018
0.07283598
0.07306876
0.07256061
0.07092001
0.06841721
0.0645918
0.05859731
0.05354626
0.05218846
0.0541277
0.05790976
0.06209483
0.06496519
0.0660113
0.06433306
0.05793289
0.04223526
0.01198617
0.08911927
0.08741246
0.08660411
0.08570489
0.08426186
0.08204453
0.07941363
0.07691587
0.07484192
0.07333227
0.07244542
0.07214277
0.0721531
0.07181257
0.07026454
0.06736858
0.06405047
0.06030795
0.05476001
0.05029244
0.04966924
0.05229641
0.0566714
0.06138228
0.06470111
0.06612361
0.06479625
0.05867505
0.04298923
0.01209091
0.0891167
0.08739416
0.08654952
0.08559638
0.0840829
0.08179601
0.07911209
0.07659467
0.07452733
0.07303442
0.07214934
0.07178036
0.07154127
0.07057748
0.06789339
0.06366965
0.05956036
0.05596596
0.05090872
0.04708943
0.0472635
0.0505929
0.05553667
0.06073061
0.06445668
0.06617655
0.06510271
0.0591667
0.04348007
0.01215432
0.08911114
0.08737074
0.08649157
0.08548963
0.08391768
0.0815988
0.07890916
0.07639804
0.07434144
0.07285659
0.07196118
0.07151979
0.0710419
0.06949331
0.06574696
0.06032008
0.05552233
0.05205613
0.04739581
0.04411509
0.0450001
0.04896148
0.05441209
0.06003917
0.06415082
0.06612297
0.06524686
0.05944568
0.04376833
0.01218944
0.08910466
0.0873466
0.08643562
0.08538857
0.08376324
0.08142981
0.07875821
0.07626938
0.07422987
0.07275172
0.07184362
0.07134132
0.07068278
0.06871346
0.06422392
0.05795799
0.05260531
0.04913349
0.04466043
0.04161905
0.04297853
0.04743416
0.05329879
0.05929001
0.06375807
0.06596328
0.06525863
0.05956629
0.04391193
0.01220573
0.08909897
0.0873264
0.08639024
0.08530719
0.08363764
0.08129489
0.0786438
0.07617566
0.07415016
0.07267603
0.07175739
0.07121776
0.07046737
0.06830794
0.06350233
0.05687002
0.05120487
0.04764173
0.04313871
0.0399064
0.04137626
0.046136
0.05229429
0.05854069
0.06330119
0.06572836
0.06518231
0.05958364
0.04396152
0.01221038
0.08909519
0.08731336
0.08636179
0.08525656
0.08355502
0.08119256
0.07854583
0.0760909
0.07407706
0.07260711
0.07168361
0.07113627
0.07039557
0.06829684
0.0636226
0.05714765
0.05154149
0.04789227
0.04318036
0.03929209
0.04039574
0.04520147
0.05151271
0.05789977
0.06286175
0.06548336
0.0650738
0.0595511
0.04396157
0.01220906
0.08909373
0.08730833
0.08635089
0.08523732
0.0835237
0.08115079
0.07850078
0.07604695
0.07403356
0.07255997
0.07163271
0.07110714
0.07048599
0.06873135
0.06471697
0.05901096
0.05384954
0.05006563
0.04493512
0.04000255
0.04020969
0.04471391
0.05099555
0.05744231
0.06255695
0.06530886
0.06498774
0.05951391
0.0439486
0.01220658
0.08909471
0.0873114
0.08635711
0.08524808
0.08354217
0.08117167
0.07851958
0.07605914
0.07403519
0.07254933
0.07161903
0.07114169
0.07073574
0.06957916
0.06672544
0.06236087
0.05795132
0.05399048
0.04821492
0.04204623
0.04097895
0.04486099
0.050925
0.05731569
0.06245609
0.06524407
0.06495207
0.05949592
0.04394135
0.01220578
0.0890981
0.08732261
0.08638084
0.08528924
0.08360552
0.08125314
0.07859698
0.07611935
0.07407511
0.07257262
0.0716432
0.07123114
0.07107966
0.07059899
0.06903837
0.06623065
0.06279702
0.05877051
0.05228101
0.04497196
0.04257344
0.04564037
0.05133134
0.05753997
0.06256322
0.0652922
0.06496835
0.05949691
0.04393872
0.01220633
0.08910368
0.08734149
0.08642147
0.08535994
0.08371435
0.08137486
0.07870277
0.07619932
0.07413186
0.07261581
0.07169602
0.07135954
0.07145763
0.07159148
0.07116407
0.06976747
0.0673558
0.06345462
0.05635776
0.0481202
0.04458413
0.04683226
0.05208946
0.05804996
0.06285313
0.06543408
0.06501697
0.05949543
0.04392132
0.01220524
0.08911071
0.08736587
0.08647518
0.08545464
0.0838573
0.08153525
0.07884046
0.07630638
0.07421391
0.07268671
0.0717827
0.07152518
0.07185054
0.0725016
0.07299085
0.07275788
0.07127497
0.06759215
0.06004203
0.0511198
0.04670206
0.0482096
0.05302595
0.05872354
0.06326175
0.06562609
0.06505891
0.05945281
0.04385631
0.01219811
0.08911794
0.08739204
0.08653438
0.08555959
0.08401569
0.08169704
0.07898657
0.07644029
0.07433867
0.07280983
0.07192612
0.07174475
0.07227078
0.07335117
0.07457344
0.07527352
0.07457227
0.07110617
0.06322855
0.053853
0.04881088
0.04968557
0.05405523
0.05945143
0.06369011
0.06579532
0.06503699
0.05931669
0.04370059
0.01217962
0.08912355
0.08741498
0.08658969
0.08566059
0.08417633
0.08190906
0.07922519
0.07668436
0.07457423
0.07303609
0.07216212
0.07204288
0.07274061
0.07418023
0.07599835
0.07744799
0.07737829
0.07407529
0.06596384
0.05634872
0.05092883
0.05129394
0.05520515
0.06020591
0.06405173
0.06586943
0.06489091
0.05902758
0.04340281
0.01214297
0.08912583
0.08743195
0.08664058
0.08576192
0.08434304
0.08215356
0.07953894
0.07703133
0.07492157
0.07337063
0.07249675
0.07242542
0.07326978
0.07501611
0.07733139
0.07939164
0.07982023
0.07660754
0.06833202
0.05865309
0.05304661
0.05298847
0.05641063
0.06093497
0.06433702
0.06583157
0.06458461
0.05853
0.0429057
0.0120789
0.08912331
0.08744336
0.0866964
0.08588762
0.08455471
0.08247799
0.07996465
0.07749571
0.07537981
0.07380528
0.07291901
0.07288078
0.07385002
0.07586353
0.07860442
0.08117006
0.08198437
0.07878959
0.07041122
0.06081918
0.05518783
0.0547939
0.05772234
0.06172024
0.06463097
0.06573181
0.06412451
0.05778661
0.04214943
0.01197444
0.08911635
0.08745863
0.08678648
0.08609224
0.0848932
0.08297482
0.08056083
0.07810689
0.0759627
0.07434087
0.07341715
0.07338674
0.07445478
0.07670195
0.0798149
0.08280488
0.08391072
0.08067069
0.07225176
0.06288923
0.05740095
0.05679993
0.05928262
0.0627385
0.06512376
0.06572895
0.06361372
0.05682652
0.04109741
0.01181137
0.0891127
0.0875152
0.08699152
0.08649535
0.08549979
0.08378345
0.0814715
0.07899754
0.07675932
0.07501467
0.07398201
0.07390198
0.07502851
0.0774791
0.08092666
0.08428047
0.0855992
0.08225924
0.07385679
0.06485817
0.05970898
0.059115
0.06131272
0.06430245
0.06616794
0.06618209
0.06336934
0.05586665
0.03982219
0.01156779
0.08914361
0.08772402
0.08750381
0.08733337
0.08660851
0.08509039
0.08281866
0.08021523
0.07773996
0.07573348
0.07448383
0.07428758
0.07544487
0.07809474
0.08186988
0.08555272
0.08702003
0.08352454
0.07516445
0.06662388
0.06201512
0.06173338
0.06397371
0.06675847
0.06826921
0.06771151
0.06406568
0.05552598
0.03871026
0.01124183
0.08930225
0.08834421
0.0886598
0.08889311
0.08838067
0.08690288
0.08442764
0.08143728
0.07850202
0.07608913
0.07456218
0.07425631
0.07549381
0.07840683
0.08255391
0.08656345
0.08812808
0.08440648
0.07604671
0.06795752
0.06401061
0.06435319
0.06710584
0.07020368
0.07177386
0.07094375
0.06664017
0.05697635
0.0387926
0.01097342
0.08980972
0.08976886
0.09063665
0.09094542
0.09024186
0.08844417
0.08541308
0.08176331
0.07822069
0.07541783
0.07373811
0.07349177
0.07498044
0.07829953
0.08290698
0.08726231
0.08888089
0.08484334
0.07635643
0.06855866
0.06519251
0.06627769
0.06993363
0.07397054
0.07619085
0.07572101
0.07156033
0.06155441
0.04189266
0.01138943
0.09096628
0.09183356
0.09230086
0.09181522
0.09051394
0.08831414
0.08469839
0.08035811
0.0763109
0.07341217
0.07191369
0.07201034
0.07395631
0.07780749
0.08292442
0.08761321
0.08923964
0.08481424
0.07604902
0.06828263
0.06519735
0.06682063
0.07150645
0.07713981
0.08054268
0.08103381
0.07831255
0.07012061
0.05046444
0.01374297
0.0921092
0.0923391
0.0917465