/*--------------------------------*- C++ -*----------------------------------*\
| =========                 |                                                 |
| \\      /  F ield         | OpenFOAM: The Open Source CFD Toolbox           |
|  \\    /   O peration     | Version:  2506                                  |
|   \\  /    A nd           | Website:  www.openfoam.com                      |
|    \\/     M anipulation  |                                                 |
\*---------------------------------------------------------------------------*/
FoamFile
{
    version     2.0;
    format      ascii;
    arch        "LSB;label=32;scalar=64";
    class       volVectorField;
    location    "250/airRegion";
    object      U;
}
// * * * * * * * * * * * * * * * * * * * * * * * * * * * * * * * * * * * * * //

dimensions      [0 1 -1 0 0 0 0];

internalField   nonuniform List<vector> 
85779
(
(-0.001374922 -0.001375041 -0.02127343)
(-0.001926683 -0.001926985 -0.02088005)
(-0.001984835 -0.001985114 -0.02025912)
(-0.002033272 -0.002032747 -0.0196633)
(-0.002379012 -0.002375246 -0.0194132)
(-0.003292345 -0.003278889 -0.02004915)
(-0.004446025 -0.004407951 -0.02199357)
(-0.001142399 -0.001039592 -0.02672818)
(0.005506379 0.005756274 -0.06074188)
(0.01582222 0.01619615 -0.08156041)
(0.0315795 0.03207212 -0.09670338)
(0.05103599 0.05166563 -0.1040539)
(0.07375291 0.07457246 -0.102992)
(0.09846753 0.09957453 -0.09313357)
(0.1223746 0.1238997 -0.07448083)
(0.1409808 0.1430262 -0.04805725)
(0.1484366 0.1509679 -0.01663466)
(0.1376066 0.1403528 0.01691329)
(0.1108778 0.1133968 0.0425197)
(0.076895 0.07887206 0.05736723)
(0.04425837 0.04545212 0.05934955)
(0.01953045 0.0191953 0.05063422)
(0.001920821 0.001681391 0.02927533)
(-0.00547265 -0.00474277 0.01853037)
(-0.006434222 -0.006319049 0.0169682)
(-0.007660096 -0.007643155 0.01565646)
(-0.009430483 -0.009442443 0.01507382)
(-0.01167623 -0.01169619 0.01410999)
(-0.01353987 -0.01356018 0.01246232)
(-0.005017974 -0.005037622 0.003035677)
(-0.004381289 -0.00139378 -0.03821709)
(-0.006319143 -0.002185067 -0.03809979)
(-0.006449519 -0.002338305 -0.0376835)
(-0.006077152 -0.00227938 -0.03731443)
(-0.005640476 -0.002257063 -0.03759231)
(-0.004829362 -0.002344498 -0.03927888)
(-0.001088175 -0.001230824 -0.04192525)
(0.00367139 0.007695167 -0.05787558)
(0.009374884 0.01845044 -0.07758307)
(0.0208456 0.02747248 -0.09300066)
(0.03751571 0.03894088 -0.104593)
(0.05797091 0.05349843 -0.1094846)
(0.0816304 0.07095203 -0.1066878)
(0.1070776 0.09033113 -0.09560654)
(0.131489 0.1094297 -0.07615117)
(0.150434 0.1245147 -0.04926175)
(0.1581179 0.1305176 -0.01767982)
(0.1471962 0.1216953 0.01595712)
(0.1196657 0.1001145 0.04230479)
(0.08419358 0.07287318 0.05883014)
(0.04932094 0.04684912 0.06369596)
(0.02108885 0.02583195 0.05922916)
(0.003656518 0.00910892 0.04966763)
(-0.006368227 -0.001401625 0.03247609)
(-0.01521273 -0.00469228 0.03021334)
(-0.02120471 -0.006849614 0.02736594)
(-0.02746892 -0.008735636 0.02536592)
(-0.0359166 -0.01025316 0.0224746)
(-0.04971796 -0.009892144 0.01939643)
(-0.06708051 0.002037089 -0.002528292)
(-0.007003142 -0.001129719 -0.04584368)
(-0.0104536 -0.001935912 -0.04592713)
(-0.01078799 -0.00219351 -0.04591298)
(-0.009953641 -0.002228319 -0.04615193)
(-0.008429444 -0.002313754 -0.04742214)
(-0.005435209 -0.00255294 -0.05047)
(0.00288303 0.0004247834 -0.05484677)
(0.007058779 0.01113966 -0.08071188)
(0.01270129 0.02164096 -0.09498087)
(0.02641237 0.03031165 -0.1071609)
(0.04468154 0.04020245 -0.1150009)
(0.0666333 0.05233865 -0.1168799)
(0.09154139 0.06675678 -0.1118341)
(0.1178928 0.08275394 -0.09915863)
(0.1428841 0.0985583 -0.07867626)
(0.1621778 0.1110323 -0.05119944)
(0.1700257 0.115801 -0.01930343)
(0.1589914 0.1080751 0.01461157)
(0.1306295 0.08959111 0.04183529)
(0.09355756 0.06634252 0.05993918)
(0.05636056 0.04396309 0.06707655)
(0.02538999 0.02529267 0.06479863)
(0.005552427 0.01018446 0.05737777)
(-0.008850283 -6.268877e-06 0.03760724)
(-0.02365155 -0.003718479 0.03474019)
(-0.03466828 -0.006108231 0.03069028)
(-0.04595896 -0.008002022 0.02721424)
(-0.06051451 -0.009340028 0.02235335)
(-0.08248348 -0.009110885 0.01814513)
(-0.1042544 -0.001829216 -0.01027213)
(-0.009016407 -0.0008107981 -0.04952404)
(-0.01386629 -0.00149531 -0.04959783)
(-0.01452175 -0.001785658 -0.04985326)
(-0.01330857 -0.001881592 -0.05072456)
(-0.01063542 -0.002031647 -0.05333438)
(-0.005122719 -0.002201021 -0.05743271)
(0.004508159 0.002381544 -0.06947445)
(0.009958953 0.01238137 -0.09443132)
(0.01737175 0.02120332 -0.1082255)
(0.03260884 0.02948082 -0.1186773)
(0.05235573 0.03860245 -0.1242584)
(0.07566105 0.04924648 -0.1239326)
(0.1016531 0.06155258 -0.1170322)
(0.1287452 0.07504945 -0.1029416)
(0.1541949 0.08834405 -0.0815067)
(0.1737826 0.0988157 -0.05346712)
(0.181794 0.1026675 -0.02123721)
(0.1707165 0.09575145 0.012975)
(0.1416821 0.07951346 0.04094173)
(0.1032793 0.05921289 0.06008439)
(0.06395154 0.03960463 0.06842682)
(0.03013057 0.02309365 0.06694114)
(0.0069365 0.009942405 0.05964887)
(-0.01166379 0.0006723887 0.03861736)
(-0.0313255 -0.002936215 0.03510154)
(-0.04694844 -0.005217312 0.03013043)
(-0.06269013 -0.006918597 0.02562057)
(-0.08163544 -0.007972795 0.01969333)
(-0.1074554 -0.007668265 0.01583293)
(-0.1262432 -0.002231509 -0.01489801)
(-0.01042136 -0.000537668 -0.05137411)
(-0.0163862 -0.001052042 -0.05134485)
(-0.01736351 -0.001313473 -0.05170599)
(-0.01584993 -0.001419285 -0.05301941)
(-0.01221119 -0.00152072 -0.05650334)
(-0.003627654 -0.001348863 -0.06112742)
(0.00575049 0.003918198 -0.08286123)
(0.01189666 0.01260475 -0.1032665)
(0.02251019 0.02009756 -0.1169307)
(0.03921333 0.02755744 -0.1268744)
(0.06016147 0.03575859 -0.1312791)
(0.08451098 0.04508045 -0.1296285)
(0.1112512 0.05565247 -0.121468)
(0.1387806 0.06712357 -0.1063566)
(0.1644693 0.07838159 -0.08421927)
(0.1842408 0.08722614 -0.05575537)
(0.1924024 0.09033942 -0.02324022)
(0.1813674 0.08408949 0.01122613)
(0.1518972 0.06972869 0.03972626)
(0.1125914 0.05198879 0.05939367)
(0.07161048 0.03494196 0.06819766)
(0.03524624 0.02064896 0.06682366)
(0.008696669 0.009384352 0.0592164)
(-0.01375783 0.001051658 0.03774083)
(-0.03752264 -0.002234716 0.03366704)
(-0.05708182 -0.004242285 0.02809703)
(-0.07636799 -0.005658207 0.0230449)
(-0.09820921 -0.006427079 0.01676103)
(-0.1257946 -0.006049193 0.01369659)
(-0.1415343 -0.002003815 -0.01794675)
(-0.01133677 -0.0003380848 -0.05233213)
(-0.01810115 -0.0006944867 -0.05220053)
(-0.01934036 -0.0009036247 -0.0526115)
(-0.01756736 -0.001011045 -0.05424567)
(-0.01300894 -0.001025547 -0.05850218)
(-0.002176752 -0.0004883419 -0.06360378)
(0.007090842 0.004350671 -0.0909934)
(0.01406244 0.01195796 -0.1092334)
(0.02719295 0.01867145 -0.1232053)
(0.04547292 0.02524525 -0.1326912)
(0.06762749 0.03236787 -0.1363173)
(0.0928299 0.04042085 -0.1337974)
(0.1200602 0.04946996 -0.1248161)
(0.1477839 0.05922061 -0.1090577)
(0.1735374 0.06876703 -0.08650486)
(0.1934078 0.07624863 -0.05780975)
(0.2017027 0.07875229 -0.02511369)
(0.1907467 0.07310114 0.009523807)
(0.1610268 0.06045331 0.038344)
(0.1212163 0.04510429 0.05815577)
(0.0791245 0.03050635 0.06699945)
(0.04075968 0.01835031 0.06549037)
(0.01127088 0.008770067 0.05758199)
(-0.01457403 0.001310372 0.03618941)
(-0.04182472 -0.001567645 0.03170839)
(-0.06466193 -0.003250611 0.02580446)
(-0.08670403 -0.004380316 0.02054768)
(-0.1104952 -0.004928613 0.01428975)
(-0.1389652 -0.004552276 0.01201101)
(-0.1521726 -0.001625171 -0.01992109)
(-0.0118985 -0.0002031639 -0.052839)
(-0.01918379 -0.0004329616 -0.05263473)
(-0.02058772 -0.0005804638 -0.05307711)
(-0.01855918 -0.0006658665 -0.05491078)
(-0.01314035 -0.0006746797 -0.05957347)
(-0.001275352 -0.000109229 -0.0651586)
(0.00930867 0.004638994 -0.09208943)
(0.01761813 0.01149862 -0.112782)
(0.03167729 0.01707669 -0.1273144)
(0.0513132 0.02257662 -0.1365557)
(0.07456493 0.02866766 -0.1396574)
(0.1004563 0.03557039 -0.1365426)
(0.1279866 0.04327435 -0.1270527)
(0.1557371 0.05152339 -0.110943)
(0.1814484 0.05958215 -0.08822431)
(0.2013766 0.06587959 -0.05947926)
(0.2097894 0.06786512 -0.02670612)
(0.1988896 0.06279647 0.00803513)
(0.1690405 0.05182148 0.0369963)
(0.1290671 0.03880135 0.05669495)
(0.08638798 0.02655495 0.06535927)
(0.04662154 0.01637418 0.06367086)
(0.01475664 0.008232719 0.05560034)
(-0.0139785 0.001518612 0.03459359)
(-0.04421134 -0.0009458796 0.0298485)
(-0.06978165 -0.002318668 0.02377691)
(-0.09400073 -0.003203324 0.01849231)
(-0.1191918 -0.003602146 0.01240954)
(-0.1481757 -0.003290156 0.01081001)
(-0.1595373 -0.001231266 -0.02123298)
(-0.01222116 -0.0001174499 -0.05311116)
(-0.01981092 -0.0002566808 -0.05286688)
(-0.02129148 -0.0003481972 -0.05334709)
(-0.01903507 -0.0003901528 -0.05540572)
(-0.01281778 -0.0003543577 -0.06062758)
(0.001449671 0.0002867147 -0.06658829)
(0.01037744 0.005146319 -0.09954382)
(0.0191301 0.01071173 -0.1165722)
(0.03595281 0.0151127 -0.1304512)
(0.05698443 0.01969061 -0.1390368)
(0.08105433 0.02489275 -0.1415969)
(0.1073771 0.03076517 -0.138081)
(0.1350195 0.03725774 -0.12831)
(0.1626787 0.04415701 -0.1120699)
(0.1882985 0.0508766 -0.08937214)
(0.2082828 0.05610283 -0.06070914)
(0.2168009 0.05763323 -0.0279232)
(0.2058927 0.05317085 0.006899706)
(0.1759907 0.04390327 0.03586389)
(0.1361362 0.03318728 0.05528575)
(0.09332057 0.02317513 0.06366717)
(0.05269837 0.01476572 0.06182773)
(0.01902197 0.007814132 0.05372697)
(-0.01212636 0.00168806 0.03324672)
(-0.04494041 -0.0004038218 0.02834586)
(-0.07281658 -0.001508665 0.02218498)
(-0.09880185 -0.002198543 0.0169381)
(-0.1250725 -0.002502866 0.01105691)
(-0.1544221 -0.002282746 0.009981044)
(-0.1645439 -0.0008824416 -0.02211524)
(-0.0123939 -6.838627e-05 -0.05326266)
(-0.02013991 -0.0001555613 -0.05300116)
(-0.02162237 -0.0002202937 -0.05350978)
(-0.01914622 -0.0002466936 -0.0556789)
(-0.01238397 -0.0001099371 -0.06104078)
(0.003004961 0.0009899937 -0.06710533)
(0.01286538 0.005009835 -0.1008758)
(0.02262731 0.009186765 -0.1177893)
(0.0405196 0.01294838 -0.1317648)
(0.06231675 0.01689637 -0.1401867)
(0.08689957 0.02128796 -0.1425005)
(0.1134769 0.02617758 -0.1387607)
(0.1411241 0.03153018 -0.1288528)
(0.1686434 0.03717508 -0.1126076)
(0.1941766 0.04264716 -0.09003486)
(0.2142449 0.0468669 -0.06152058)
(0.2228617 0.04799133 -0.02873969)
(0.2118787 0.04420379 0.006176978)
(0.1819941 0.03672108 0.03504151)
(0.1424775 0.02827535 0.05410147)
(0.09985616 0.02034411 0.06217378)
(0.05879771 0.01348865 0.06023203)
(0.0237938 0.007517471 0.05218121)
(-0.009349663 0.001860143 0.03225976)
(-0.04441359 3.776329e-05 0.02726958)
(-0.07424773 -0.0008548503 0.02103818)
(-0.1016926 -0.001394577 0.01583082)
(-0.1288396 -0.001638796 0.01011742)
(-0.1585025 -0.001511559 0.009427409)
(-0.1678294 -0.0005914925 -0.02267774)
(-0.01248236 -4.533232e-05 -0.05336087)
(-0.02030218 -0.0001162834 -0.05311075)
(-0.02174911 -0.0002060982 -0.05368382)
(-0.01904219 -0.0003278248 -0.05599332)
(-0.01183133 -0.000369785 -0.06144079)
(0.004328306 0.001197029 -0.0678683)
(0.01512342 0.005134774 -0.1017424)
(0.02579855 0.008331458 -0.118711)
(0.04447807 0.01127186 -0.1326672)
(0.06687617 0.0144043 -0.1408827)
(0.09186942 0.01790985 -0.1429431)
(0.1186363 0.02181674 -0.138993)
(0.1462629 0.02607904 -0.1289736)
(0.1736542 0.03053988 -0.1127544)
(0.1991382 0.03482405 -0.09033444)
(0.2193238 0.0380757 -0.0619856)
(0.228042 0.03885095 -0.02921049)
(0.2169825 0.03585678 0.005803793)
(0.1872275 0.030244 0.03450432)
(0.1482018 0.02399117 0.05320409)
(0.1059499 0.01795361 0.06101811)
(0.06470146 0.01245066 0.05904859)
(0.02873 0.007312789 0.05111957)
(-0.006025612 0.002055736 0.03167267)
(-0.04307104 0.0003601436 0.02655559)
(-0.07455445 -0.0003714368 0.02027516)
(-0.1032074 -0.0007923136 0.01508751)
(-0.131079 -0.0009918959 0.00949217)
(-0.1610264 -0.0009364617 0.009069747)
(-0.1698789 -0.0003688555 -0.02302135)
(-0.01253119 -3.476741e-05 -0.05344489)
(-0.02039619 -0.0001037982 -0.05324563)
(-0.02181772 -0.0002297275 -0.05397154)
(-0.01887437 -0.0005004115 -0.05665823)
(-0.01125345 -0.0009345613 -0.06223184)
(0.005162392 0.001293654 -0.07057859)
(0.01665536 0.005356541 -0.1036684)
(0.02810058 0.007578694 -0.1204368)
(0.04750218 0.009632663 -0.1338732)
(0.07047215 0.0119411 -0.1416147)
(0.0958485 0.01458995 -0.1432843)
(0.1227959 0.01756747 -0.1390601)
(0.15042 0.0208058 -0.1288961)
(0.1777181 0.02415158 -0.1126798)
(0.2031773 0.02729933 -0.09039702)
(0.2234809 0.02962313 -0.06221573)
(0.2323266 0.0301332 -0.02947535)
(0.2213317 0.02807601 0.005589887)
(0.1918966 0.02436739 0.03412522)
(0.1534416 0.02016037 0.05257364)
(0.111561 0.01581356 0.06026904)
(0.07017817 0.01151239 0.05837855)
(0.0334532 0.007118494 0.05062693)
(-0.002571033 0.002156837 0.03151136)
(-0.04135116 0.0005163334 0.02612827)
(-0.07417325 -6.714741e-05 0.01982816)
(-0.1038031 -0.0003799569 0.01463054)
(-0.1322638 -0.0005364885 0.009102854)
(-0.1624625 -0.0005268031 0.008852026)
(-0.1710579 -0.0002079372 -0.02321658)
(-0.01255862 -2.607519e-05 -0.05351743)
(-0.02045363 -8.472067e-05 -0.05338543)
(-0.0218583 -0.0002044536 -0.05433208)
(-0.01870922 -0.0005280943 -0.0575973)
(-0.01017806 -0.001090741 -0.06314633)
(0.005364222 0.001410471 -0.07710307)
(0.01692311 0.004929369 -0.1063862)
(0.02970585 0.006326589 -0.1226225)
(0.04973637 0.007645492 -0.1352207)
(0.0731717 0.009283942 -0.1423371)
(0.09886201 0.01118395 -0.1435814)
(0.1259636 0.01331901 -0.1390699)
(0.1535925 0.01561339 -0.12875)
(0.1808085 0.01792023 -0.1125177)
(0.2062156 0.01999982 -0.09035253)
(0.2265896 0.02146377 -0.06235139)
(0.2356354 0.02180323 -0.0297194)
(0.2250187 0.02077094 0.005299447)
(0.1961601 0.01888647 0.03375477)
(0.1582744 0.01650384 0.05216757)
(0.1166012 0.01365919 0.05997813)
(0.07494982 0.01050463 0.05831355)
(0.03752002 0.006948795 0.05074306)
(0.0004651025 0.002175532 0.03179563)
(-0.03963423 0.0004082309 0.02602345)
(-0.07346411 4.359188e-05 0.0196654)
(-0.103852 -0.000141328 0.01440169)
(-0.1327688 -0.0002444059 0.008890275)
(-0.1631733 -0.000254933 0.008734917)
(-0.1716491 -9.960067e-05 -0.02331276)
(-0.0125732 -1.611276e-05 -0.05357118)
(-0.0204844 -5.241687e-05 -0.05349281)
(-0.02188017 -0.0001224961 -0.05463194)
(-0.01854958 -0.000250342 -0.05830136)
(-0.008231926 -0.0003585276 -0.06394653)
(0.005072448 0.0008256429 -0.08669442)
(0.01573813 0.002956739 -0.1092739)
(0.03075222 0.004251747 -0.1242832)
(0.05134569 0.0053073 -0.1362901)
(0.07507119 0.006421394 -0.1428808)
(0.1009777 0.007675386 -0.1437924)
(0.128176 0.00905194 -0.1390554)
(0.1557842 0.01047919 -0.128614)
(0.1828971 0.01182508 -0.1123761)
(0.2081941 0.01291861 -0.09032609)
(0.2285698 0.01360363 -0.06253124)
(0.2378974 0.01383165 -0.0300981)
(0.2280412 0.01379515 0.004765602)
(0.2000294 0.01352709 0.03329524)
(0.1626548 0.01266996 0.05195206)
(0.1209112 0.01110758 0.06019403)
(0.0786976 0.009080209 0.05907204)
(0.04033781 0.006610507 0.05180029)
(0.002412131 0.002246769 0.03350297)
(-0.03820613 5.248177e-05 0.02623776)
(-0.07271787 -2.035976e-06 0.01984381)
(-0.1036511 -3.126798e-05 0.01437291)
(-0.1328873 -7.918936e-05 0.008811838)
(-0.1634406 -9.258079e-05 0.008689243)
(-0.1718746 -3.387953e-05 -0.02334597)
(-0.01257773 -7.232796e-06 -0.0535987)
(-0.02049014 -2.238678e-05 -0.05354175)
(-0.02185565 -4.586831e-05 -0.05468204)
(-0.01844254 -2.406366e-05 -0.05836353)
(-0.009399688 0.0001257497 -0.06404295)
(0.006180291 0.0003054333 -0.07985692)
(0.01814297 0.00119461 -0.1085247)
(0.03164535 0.002149052 -0.1246315)
(0.0523145 0.002870361 -0.1366264)
(0.07624608 0.003490372 -0.1431287)
(0.1022519 0.004150634 -0.1438781)
(0.1294699 0.004830163 -0.1390238)
(0.1570173 0.005457842 -0.1285283)
(0.1839912 0.005917024 -0.1123192)
(0.2091049 0.006101021 -0.09039979)
(0.229394 0.006069886 -0.06285111)
(0.23905 0.006191708 -0.03072284)
(0.2303101 0.007011962 0.003851117)
(0.2034005 0.00806552 0.03261076)
(0.1664968 0.008377153 0.0517488)
(0.1244772 0.007789302 0.06069544)
(0.08140828 0.006569323 0.0603829)
(0.04083775 0.004880842 0.05403633)
(0.002764352 0.001918665 0.04056808)
(-0.03631577 8.618088e-05 0.02678143)
(-0.07207526 3.357913e-05 0.02028963)
(-0.1033928 2.492707e-05 0.01448707)
(-0.132826 1.804598e-06 0.008812725)
(-0.1634738 -1.114799e-05 0.008684762)
(-0.1719019 -1.817275e-06 -0.0233453)
(-0.01257938 -1.439375e-06 -0.05360876)
(-0.0204918 -4.234695e-06 -0.05355875)
(-0.02184881 -7.9939e-06 -0.0547145)
(-0.01840789 -6.417931e-05 -0.05841771)
(-0.009313116 -0.0001785744 -0.06407442)
(0.006372744 0.0002481096 -0.07991663)
(0.01843745 0.0005532568 -0.1086248)
(0.03200994 0.0004829962 -0.1247675)
(0.05272866 0.0004969231 -0.1367342)
(0.07669195 0.0006087777 -0.1431836)
(0.1027042 0.0006942366 -0.1438803)
(0.129894 0.0007153685 -0.1389894)
(0.1573619 0.0005977219 -0.1284884)
(0.1841725 0.0002312724 -0.1123285)
(0.2090218 -0.0004392122 -0.09055285)
(0.2290985 -0.001160001 -0.06332002)
(0.2390593 -0.001192935 -0.03167198)
(0.2316982 0.0002867829 0.002395338)
(0.2061055 0.002402869 0.03148837)
(0.1696923 0.003621764 0.05123868)
(0.1273447 0.003810864 0.06082207)
(0.08361544 0.003296064 0.06087136)
(0.04309298 0.002350098 0.05419737)
(0.004193564 0.000851619 0.03812941)
(-0.03624486 0.0001384877 0.0269283)
(-0.07166159 5.629801e-05 0.02042326)
(-0.1031664 3.881111e-05 0.01452486)
(-0.1327176 2.567412e-05 0.008825118)
(-0.1634226 1.54936e-05 0.008689819)
(-0.1718636 6.181465e-06 -0.02333679)
(-0.01258103 3.94689e-06 -0.05360506)
(-0.02049634 1.311842e-05 -0.0535519)
(-0.02186674 2.951996e-05 -0.05475069)
(-0.01843053 4.629191e-05 -0.05852008)
(-0.007924283 -8.907056e-06 -0.06416652)
(0.005600358 -0.0001931289 -0.08717508)
(0.01651337 -0.0008569004 -0.109835)
(0.03176841 -0.001433142 -0.1248641)
(0.05255227 -0.001827435 -0.1367273)
(0.07641062 -0.002215618 -0.1430971)
(0.1023707 -0.002679721 -0.1438135)
(0.1295156 -0.003274818 -0.1389405)
(0.1569164 -0.004076886 -0.1284573)
(0.18357 -0.005179745 -0.1123379)
(0.2080972 -0.006584793 -0.09068242)
(0.22783 -0.007896947 -0.06377924)
(0.237981 -0.0081571 -0.03271841)
(0.2320259 -0.006388856 0.0006367825)
(0.2078754 -0.003551604 0.02999721)
(0.171979 -0.001519997 0.05041176)
(0.1293266 -0.0005237933 0.06071634)
(0.08492814 -0.0001895003 0.06118132)
(0.04306554 -9.573639e-05 0.05499769)
(0.004090136 -6.82947e-05 0.04158129)
(-0.03542309 -4.030418e-05 0.02711341)
(-0.07150562 -5.901538e-06 0.0205333)
(-0.1030735 1.565315e-05 0.01457833)
(-0.1326525 2.449257e-05 0.008839439)
(-0.1633768 2.219398e-05 0.008694431)
(-0.1718361 5.815377e-06 -0.02333247)
(-0.01258163 1.12693e-05 -0.05358495)
(-0.02050134 3.839849e-05 -0.05351306)
(-0.02188694 9.220881e-05 -0.05462627)
(-0.01856611 0.0001856505 -0.05827978)
(-0.009578832 0.0002469683 -0.06369464)
(0.006035207 -0.0006296538 -0.07967376)
(0.01789987 -0.002294396 -0.10802)
(0.0312875 -0.003347891 -0.1242501)
(0.05170974 -0.004153619 -0.1362377)
(0.07546322 -0.004987176 -0.1428195)
(0.1013219 -0.005962038 -0.1436504)
(0.128408 -0.007138854 -0.1388553)
(0.1557675 -0.008582959 -0.1284121)
(0.1823066 -0.01035652 -0.1123112)
(0.2065316 -0.01239611 -0.09071071)
(0.225875 -0.014209 -0.06403435)
(0.2360661 -0.01473393 -0.03346552)
(0.2312261 -0.01292633 -0.0008089632)
(0.2083742 -0.009604294 0.02862246)
(0.173 -0.006815806 0.04953977)
(0.1301273 -0.004957762 0.06039086)
(0.08527963 -0.003695297 0.06110455)
(0.04385807 -0.002473721 0.05458519)
(0.004404811 -0.0009379504 0.0384032)
(-0.0362207 -0.0002552498 0.02707412)
(-0.07163114 -5.824918e-05 0.02052723)
(-0.103101 1.429607e-05 0.01458747)
(-0.1326272 4.744092e-05 0.008859475)
(-0.1633305 5.12483e-05 0.008700253)
(-0.1718134 1.581344e-05 -0.02333127)
(-0.01257649 1.95017e-05 -0.0535427)
(-0.02049151 6.693868e-05 -0.05342709)
(-0.02190467 0.0001677858 -0.0544743)
(-0.01867903 0.0003993241 -0.05793919)
(-0.008575486 0.0007501969 -0.06348608)
(0.004924443 -0.001086136 -0.08520309)
(0.01556466 -0.003916902 -0.108105)
(0.03023484 -0.005237888 -0.1231745)
(0.05050503 -0.006365747 -0.135433)
(0.07393885 -0.007641407 -0.1422593)
(0.09960794 -0.009143898 -0.1433433)
(0.1266086 -0.01091944 -0.1387101)
(0.153951 -0.01301349 -0.1283386)
(0.1804475 -0.01544461 -0.1122342)
(0.2044763 -0.01807476 -0.09060774)
(0.2234997 -0.02033863 -0.06400559)
(0.2336179 -0.02114158 -0.03373085)
(0.2294672 -0.0194139 -0.001597998)
(0.2075908 -0.01571246 0.02773295)
(0.1726699 -0.01209474 0.04891615)
(0.1297369 -0.009257981 0.06011569)
(0.08462957 -0.007025544 0.06103808)
(0.04234461 -0.004753001 0.05493043)
(0.003288106 -0.001744946 0.04154322)
(-0.03619505 -0.0003143478 0.02707445)
(-0.07195699 -2.5417e-05 0.02057388)
(-0.1031823 8.71045e-05 0.01464597)
(-0.1325547 0.0001357866 0.008903376)
(-0.1631931 0.0001365741 0.008719667)
(-0.1717129 5.000017e-05 -0.02331889)
(-0.01256434 2.666733e-05 -0.05348168)
(-0.02046597 8.823334e-05 -0.05329968)
(-0.02189256 0.0002192686 -0.05409721)
(-0.01887358 0.0005719132 -0.05701396)
(-0.0109234 0.001200247 -0.06244862)
(0.005360874 -0.001470328 -0.07286745)
(0.0170941 -0.005315221 -0.1043798)
(0.02905892 -0.006863066 -0.1210133)
(0.04867453 -0.008317046 -0.1340364)
(0.07178778 -0.01010345 -0.1414918)
(0.09721676 -0.01220094 -0.1429333)
(0.1241074 -0.01463727 -0.1385209)
(0.1514556 -0.01743749 -0.1282433)
(0.1779874 -0.02057201 -0.1121129)
(0.2019482 -0.02382351 -0.09038008)
(0.2207646 -0.02655344 -0.06369522)
(0.2307508 -0.02763533 -0.033498)
(0.226892 -0.02596651 -0.001654096)
(0.2055982 -0.02183358 0.02748022)
(0.1709889 -0.01723854 0.04869102)
(0.1281005 -0.01322953 0.05986717)
(0.08308806 -0.01002004 0.06052867)
(0.04131389 -0.007088296 0.0541299)
(0.002373947 -0.002783594 0.03981148)
(-0.0371952 8.058605e-06 0.02687073)
(-0.07238904 0.0001695733 0.02044829)
(-0.1031677 0.0002488921 0.0147001)
(-0.1322871 0.0003133072 0.008994764)
(-0.1628151 0.0003008833 0.008771012)
(-0.1714091 0.0001160831 -0.02327455)
(-0.0125401 3.095963e-05 -0.05340772)
(-0.02041598 8.961609e-05 -0.05315443)
(-0.02186027 0.0001902899 -0.05374513)
(-0.01904609 0.0003794298 -0.05610122)
(-0.01159683 0.0006207019 -0.06152243)
(0.004940579 -0.001233428 -0.06812654)
(0.01621016 -0.005056518 -0.1018907)
(0.02730699 -0.007528315 -0.1187955)
(0.04631247 -0.009828958 -0.1326242)
(0.06893635 -0.01231995 -0.1406444)
(0.09405992 -0.0151405 -0.1424836)
(0.120829 -0.01834195 -0.138313)
(0.1482158 -0.0219434 -0.1281299)
(0.1748639 -0.0258725 -0.1119436)
(0.1988822 -0.02982964 -0.09002992)
(0.2176081 -0.03308588 -0.06312572)
(0.2274402 -0.03444729 -0.03281577)
(0.2235502 -0.03273576 -0.001024926)
(0.2024428 -0.0280026 0.02791208)
(0.1679233 -0.02219217 0.04901663)
(0.1250675 -0.01669582 0.05991024)
(0.0803403 -0.01209526 0.0599307)
(0.04027049 -0.00799757 0.05266917)
(0.001466197 -0.002530539 0.03324842)
(-0.03906256 -2.513134e-05 0.02672021)
(-0.0727624 0.0002911805 0.02027721)
(-0.1028914 0.0004811655 0.01483256)
(-0.1316371 0.0005949678 0.009189456)
(-0.1620022 0.0005634641 0.008884656)
(-0.170745 0.000220862 -0.02317034)
(-0.01250082 3.951842e-05 -0.05333783)
(-0.02035197 9.447148e-05 -0.05305529)
(-0.02184869 0.0001440186 -0.05355595)
(-0.01925702 0.000176469 -0.05573894)
(-0.01220995 4.84787e-05 -0.06108888)
(0.003716853 -0.00115829 -0.06713532)
(0.01426273 -0.004676613 -0.1008181)
(0.02468524 -0.00798894 -0.117729)
(0.0430799 -0.01114148 -0.1317269)
(0.06522492 -0.01445312 -0.1400143)
(0.09003557 -0.01809137 -0.1420978)
(0.1166892 -0.0221492 -0.1380995)
(0.1441501 -0.02665103 -0.1279725)
(0.1709875 -0.03148505 -0.1116914)
(0.1951708 -0.03626085 -0.0895347)
(0.2139071 -0.04012959 -0.06230642)
(0.2235817 -0.04177759 -0.03173527)
(0.2194097 -0.0398945 0.0002122674)
(0.1981255 -0.03435458 0.02902469)
(0.1634224 -0.02709548 0.05003729)
(0.1204809 -0.01986194 0.06072675)
(0.0759528 -0.01360265 0.06042145)
(0.03657045 -0.008124867 0.05295284)
(-0.001161917 -0.00234846 0.0330091)
(-0.04039163 -0.0002633614 0.0271729)
(-0.07292371 0.0004450588 0.02064218)
(-0.1021604 0.0008361337 0.01526334)
(-0.1303627 0.001019085 0.009573709)
(-0.1605013 0.0009535533 0.009102447)
(-0.1695198 0.0003744565 -0.02296894)
(-0.0124173 6.553942e-05 -0.05324895)
(-0.02020399 0.0001452485 -0.05296585)
(-0.02174339 0.000194315 -0.05343219)
(-0.01936711 0.0001899355 -0.05553374)
(-0.01277223 3.055561e-05 -0.06085841)
(0.002274076 -0.0008690851 -0.06676754)
(0.011868 -0.004754943 -0.1004416)
(0.02142368 -0.00894552 -0.1171005)
(0.03912543 -0.01277201 -0.1309599)
(0.06072431 -0.01681202 -0.1393279)
(0.0851623 -0.02125314 -0.1415721)
(0.1116661 -0.02620324 -0.137714)
(0.1392033 -0.03168395 -0.1276332)
(0.166272 -0.03753409 -0.1112497)
(0.1906945 -0.04325323 -0.08882691)
(0.2095159 -0.04783402 -0.06122063)
(0.2190345 -0.04978557 -0.03029902)
(0.2143925 -0.04760549 0.001953606)
(0.192647 -0.04106351 0.0307069)
(0.1575495 -0.03217456 0.05165338)
(0.114485 -0.02307991 0.06217198)
(0.07031327 -0.01517101 0.06165244)
(0.0318978 -0.008507581 0.05397216)
(-0.004338747 -0.002263089 0.03355435)
(-0.04160362 -0.0001091522 0.02795407)
(-0.07255704 0.0008395413 0.02140585)
(-0.1006111 0.001387421 0.01600667)
(-0.1281007 0.001633221 0.01020161)
(-0.1579604 0.001506804 0.009463083)
(-0.1674586 0.0005888345 -0.02262211)
(-0.01224414 0.0001176337 -0.05310068)
(-0.01987419 0.0002571204 -0.05283761)
(-0.02141236 0.0003488931 -0.05328093)
(-0.01925876 0.0003922404 -0.05527347)
(-0.0131878 0.0004157681 -0.06038963)
(0.0007907937 -2.916099e-05 -0.06641412)
(0.009325238 -0.005290043 -0.0990052)
(0.01802356 -0.01081564 -0.1160339)
(0.03474337 -0.01497521 -0.1294882)
(0.05565813 -0.01949169 -0.1380183)
(0.07956932 -0.02469598 -0.1404987)
(0.1058075 -0.03056793 -0.1368463)
(0.1333581 -0.03710813 -0.1268759)
(0.1606462 -0.04409458 -0.1104467)
(0.1853357 -0.05089349 -0.08779863)
(0.2042822 -0.0562972 -0.059828)
(0.2136431 -0.05858071 -0.02853694)
(0.2083977 -0.05598971 0.004093022)
(0.1860033 -0.04826666 0.03281221)
(0.1504114 -0.03758649 0.05369797)
(0.1073157 -0.02651572 0.06404819)
(0.06380143 -0.01688529 0.06333865)
(0.02683026 -0.009003839 0.05543851)
(-0.00738405 -0.002130536 0.03443189)
(-0.0422567 0.000260152 0.02909171)
(-0.07121923 0.001437734 0.02256092)
(-0.09778396 0.002151919 0.01711819)
(-0.1243773 0.00246919 0.01114551)
(-0.1539114 0.002258454 0.01002063)
(-0.1641967 0.0008724079 -0.02206009)
(-0.01191678 0.0002050963 -0.05282776)
(-0.01923415 0.0004391836 -0.05260522)
(-0.02068742 0.000594553 -0.0530108)
(-0.01874179 0.0007003521 -0.0547323)
(-0.01342568 0.0007832179 -0.05925863)
(-0.003038037 0.0004376936 -0.06505306)
(0.008928377 -0.004270385 -0.08534232)
(0.01811925 -0.01154564 -0.1111665)
(0.03071064 -0.01692821 -0.1261122)
(0.05023422 -0.02227503 -0.1352997)
(0.07338337 -0.02830077 -0.1383839)
(0.09917136 -0.03517764 -0.1351241)
(0.1266095 -0.04289541 -0.1254197)
(0.1540464 -0.05116738 -0.1090845)
(0.1789788 -0.0592058 -0.08632965)
(0.1980529 -0.06556147 -0.05808414)
(0.2072473 -0.06822128 -0.02647802)
(0.2013152 -0.06512018 0.006521406)
(0.178187 -0.05605407 0.03517626)
(0.1421258 -0.04343413 0.05596848)
(0.09922687 -0.03027082 0.06613627)
(0.05679933 -0.01880213 0.06528094)
(0.02184761 -0.009566561 0.05726862)
(-0.009748335 -0.001936876 0.03570895)
(-0.04184321 0.000765458 0.03058519)
(-0.06839467 0.002211747 0.02414549)
(-0.09312424 0.0031292 0.01867288)
(-0.1185944 0.003548259 0.01250113)
(-0.1477369 0.003252309 0.01085293)
(-0.1592429 0.00121543 -0.02118203)
(-0.01134869 0.0003406942 -0.05231906)
(-0.01813328 0.0007026311 -0.05216843)
(-0.01940141 0.0009205948 -0.05253522)
(-0.01768203 0.001049515 -0.05405284)
(-0.01322575 0.001078909 -0.05804335)
(-0.003188794 0.0005880761 -0.06328731)
(0.007040658 -0.003545253 -0.08712706)
(0.014187 -0.01151209 -0.1078314)
(0.0264569 -0.01831415 -0.1216882)
(0.04459052 -0.02481027 -0.1313064)
(0.06662258 -0.03184564 -0.134921)
(0.09176261 -0.03987543 -0.1322541)
(0.1189376 -0.04893399 -0.1230334)
(0.1464089 -0.05868094 -0.107005)
(0.1715111 -0.06815429 -0.08433534)
(0.1906783 -0.07561982 -0.05597359)
(0.19969 -0.07872186 -0.02417113)
(0.1930386 -0.07502465 0.009115392)
(0.1691956 -0.06446203 0.03761358)
(0.1328187 -0.04975877 0.05821731)
(0.09047338 -0.03439043 0.06814543)
(0.04966613 -0.0209599 0.06718397)
(0.01735821 -0.01021983 0.05921013)
(-0.01104146 -0.00175434 0.03722141)
(-0.03989886 0.001356148 0.03238874)
(-0.06356195 0.003120558 0.02615294)
(-0.08601935 0.004290297 0.02072466)
(-0.1100311 0.004863775 0.01438267)
(-0.138625 0.004507458 0.0120554)
(-0.1519511 0.001607067 -0.01987961)
(-0.01042597 0.0005404292 -0.05135896)
(-0.01639772 0.001060733 -0.05131238)
(-0.01738587 0.001331734 -0.0516329)
(-0.01589854 0.001459627 -0.05285713)
(-0.01234452 0.001610899 -0.05619744)
(-0.004007264 0.001535698 -0.06081316)
(0.005356986 -0.003523863 -0.08177019)
(0.01138609 -0.01228921 -0.1021269)
(0.02182328 -0.019726 -0.115593)
(0.03842312 -0.02704725 -0.1255086)
(0.05929862 -0.03516481 -0.1298358)
(0.08363179 -0.04446597 -0.1280061)
(0.110357 -0.05504715 -0.1195669)
(0.1376927 -0.0665036 -0.1041386)
(0.1628378 -0.07765956 -0.08181077)
(0.1820262 -0.08643746 -0.05354243)
(0.1908327 -0.09007592 -0.02170334)
(0.1834837 -0.08570019 0.01173325)
(0.1590462 -0.07346875 0.03992336)
(0.1226252 -0.05651441 0.06015361)
(0.08128853 -0.03882128 0.06968735)
(0.04268327 -0.02331592 0.06858908)
(0.01362355 -0.01091266 0.06077827)
(-0.01101516 -0.001553579 0.0386807)
(-0.03609524 0.001995602 0.0342933)
(-0.05630104 0.004100453 0.02842518)
(-0.075894 0.005563873 0.02321681)
(-0.09789086 0.006361079 0.01685323)
(-0.1255633 0.006004445 0.01374035)
(-0.1413898 0.001987346 -0.01791349)
(-0.009014105 0.0008124097 -0.04950684)
(-0.01385755 0.001499819 -0.04956256)
(-0.01450263 0.001792942 -0.04976935)
(-0.01328553 0.001890223 -0.05050701)
(-0.01071149 0.002040528 -0.05278672)
(-0.005805562 0.002246122 -0.05673828)
(0.004678025 -0.002107795 -0.06510683)
(0.01030813 -0.01193064 -0.09253881)
(0.01695675 -0.0206614 -0.1065153)
(0.0319594 -0.02886601 -0.1171646)
(0.05163079 -0.03795846 -0.1227445)
(0.07495124 -0.04861243 -0.1222394)
(0.1009672 -0.06094824 -0.1150315)
(0.1279229 -0.07443523 -0.1005782)
(0.1529238 -0.08761068 -0.07888585)