/*--------------------------------*- C++ -*----------------------------------*\
| =========                 |                                                 |
| \\      /  F ield         | OpenFOAM: The Open Source CFD Toolbox           |
|  \\    /   O peration     | Version:  2506                                  |
|   \\  /    A nd           | Website:  www.openfoam.com                      |
|    \\/     M anipulation  |                                                 |
\*---------------------------------------------------------------------------*/
FoamFile
{
    version     2.0;
    format      ascii;
    arch        "LSB;label=32;scalar=64";
    class       volScalarField;
    location    "1000/air";
    object      epsilon;
}
// * * * * * * * * * * * * * * * * * * * * * * * * * * * * * * * * * * * * * //

dimensions      [0 2 -3 0 0 0 0];

internalField   nonuniform List<scalar> 
33752
(
0.02629913
0.02643351
0.02681765
0.02736043
0.02796305
0.02856156
0.02911263
0.02960081
0.03002358
0.03038381
0.03068843
0.03094672
0.03116906
0.03136599
0.0315475
0.03172243
0.03189808
0.03207992
0.03227155
0.03247477
0.03268992
0.03291625
0.03315246
0.03339734
0.03365052
0.03391345
0.03419074
0.03449353
0.03484443
0.03522363
0.02625701
0.02624887
0.02652639
0.02699087
0.02753205
0.02808038
0.0285931
0.02904816
0.02944341
0.02978109
0.03006754
0.03031152
0.03052293
0.03071188
0.03088796
0.03105962
0.03123377
0.03141549
0.03160798
0.03181268
0.03202961
0.03225785
0.03249621
0.0327441
0.0330026
0.03327633
0.03357591
0.03392343
0.03436331
0.03490025
0.0263382
0.02622759
0.02639098
0.02675805
0.02722001
0.02770353
0.02816513
0.02857633
0.02893418
0.02923982
0.02949883
0.02971953
0.02991162
0.03008519
0.03024987
0.03041411
0.03058471
0.0307665
0.03096227
0.03117292
0.03139791
0.03163588
0.03188555
0.03214674
0.03242192
0.0327184
0.03305134
0.03344919
0.03396273
0.03458171
0.02650178
0.02631927
0.02638452
0.02665598
0.0270337
0.0274456
0.02784723
0.02820765
0.02852131
0.02878819
0.02901301
0.02920378
0.02937039
0.02952336
0.02967282
0.02982765
0.02999482
0.030179
0.03038249
0.03060539
0.03084624
0.03110277
0.03137307
0.03165685
0.03195709
0.03228237
0.03264967
0.03308911
0.03365098
0.03430863
0.02670598
0.02646912
0.02645314
0.02663711
0.02693105
0.02726754
0.02760296
0.02790605
0.02816879
0.02838956
0.02857228
0.02872504
0.02885848
0.02898426
0.02911362
0.02925636
0.02941991
0.02960884
0.02982473
0.03006651
0.03033119
0.03061497
0.03091462
0.03122896
0.03156062
0.03191818
0.03231865
0.03279153
0.0333847
0.03406012
0.02693319
0.02665139
0.02656559
0.02666954
0.02688179
0.02714063
0.02740539
0.0276455
0.02785061
0.02801696
0.02814806
0.02825288
0.02834362
0.02843336
0.02853569
0.02866251
0.02882222
0.02901927
0.02925401
0.02952295
0.02982035
0.03014053
0.03047829
0.03083078
0.03119948
0.0315922
0.03202507
0.03252617
0.03314093
0.03382386
0.02717332
0.02685141
0.02670269
0.02673178
0.02686439
0.0270444
0.02723538
0.02740795
0.02754812
0.02765015
0.02771748
0.02776091
0.02779595
0.02784036
0.02791005
0.02801815
0.028174
0.02838187
0.02864071
0.02894524
0.02928705
0.02965557
0.03004225
0.0304415
0.03085319
0.03128438
0.03175011
0.03227702
0.03290859
0.03359451
0.02741704
0.027058
0.02685077
0.02680873
0.02686376
0.02696514
0.02708067
0.02718158
0.02724833
0.02727422
0.02726659
0.02723944
0.02721116
0.02720248
0.02723305
0.0273192
0.02747177
0.02769478
0.02798511
0.0283336
0.02872726
0.02915195
0.02959512
0.03004864
0.03051015
0.03098421
0.03148461
0.03203693
0.0326835
0.03337081
0.02765123
0.02725818
0.02699702
0.02688825
0.02686908
0.02689367
0.02693458
0.02695942
0.02694501
0.02688799
0.02679658
0.02668806
0.02658537
0.02651397
0.02649827
0.02655883
0.02670867
0.02695157
0.02728167
0.02768468
0.02814166
0.02863299
0.02914162
0.02965578
0.03017073
0.03068998
0.0312264
0.03180474
0.0324661
0.03315474
0.02786222
0.02743923
0.02713009
0.02696083
0.02687308
0.0268254
0.02679405
0.02674052
0.02664197
0.02649586
0.02631312
0.02611452
0.02592772
0.02578412
0.02571473
0.02574582
0.02589324
0.02616059
0.02653889
0.02700722
0.02753848
0.02810589
0.02868743
0.02926789
0.02984031
0.03040714
0.03098051
0.03158453
0.03226024
0.03295061
0.02804026
0.02759222
0.02724228
0.02702058
0.02687217
0.0267594
0.02666006
0.02653025
0.02634754
0.02611107
0.02583381
0.02553952
0.02526119
0.02504521
0.0249555
0.02497983
0.02512815
0.02540323
0.02579834
0.02632379
0.02693761
0.02758856
0.02824776
0.02889717
0.02952832
0.03014291
0.03075285
0.03138233
0.03207236
0.03276451
0.02818047
0.02771288
0.02733016
0.02706539
0.02686622
0.02669786
0.02653802
0.02633798
0.02607689
0.02575472
0.02538548
0.02499569
0.02465804
0.02442853
0.02430057
0.02430076
0.02444683
0.02474201
0.02517389
0.02571702
0.0263727
0.02710749
0.02784459
0.02856133
0.02924869
0.02990835
0.03055244
0.03120552
0.03190898
0.03260355
0.02828326
0.02780115
0.02739393
0.02709632
0.02685772
0.0266454
0.02643548
0.02617668
0.02584903
0.02545266
0.02500199
0.02454681
0.02418786
0.02390672
0.02373817
0.02371564
0.02385948
0.02417309
0.02464159
0.02523399
0.02591338
0.02669778
0.02750452
0.02828116
0.02901758
0.02971603
0.03038927
0.03106244
0.03177745
0.03247459
0.02834938
0.02785932
0.02743625
0.02711653
0.02685082
0.02660772
0.02636156
0.02605994
0.02568327
0.02523147
0.02471964
0.02424626
0.02384337
0.02352037
0.02332046
0.02328038
0.02342229
0.02374973
0.02424616
0.02487724
0.02559833
0.02639639
0.02725526
0.02807785
0.02885138
0.02957869
0.0302734
0.03096134
0.03168495
0.03238433
0.02838519
0.02789175
0.02746109
0.02713004
0.02684996
0.02659026
0.02632418
0.0259991
0.02559556
0.02511328
0.02456814
0.02408609
0.02365725
0.02331092
0.02309357
0.02304362
0.02318423
0.0235191
0.02403076
0.02468304
0.02542858
0.02623266
0.02711976
0.02796719
0.02876065
0.02950343
0.03020965
0.03090555
0.03163396
0.03233532
0.0283939
0.02790227
0.02747213
0.0271404
0.02685877
0.0265968
0.02632844
0.02600125
0.02559577
0.02511182
0.02456535
0.0240822
0.02365256
0.02330567
0.02308794
0.02303771
0.02317812
0.02351281
0.0240243
0.02467643
0.02542184
0.02622585
0.0271129
0.02796038
0.02875391
0.02949679
0.03020311
0.03089912
0.03162768
0.03232926
0.02837861
0.02789375
0.02747187
0.02714964
0.02687892
0.02662863
0.02637537
0.02606713
0.02568446
0.02522753
0.02471157
0.02423481
0.02382947
0.02350474
0.02330362
0.02326266
0.02340389
0.02373076
0.02422669
0.0248573
0.02557804
0.02637587
0.02723466
0.02805746
0.0288313
0.02955892
0.03025393
0.03094222
0.03166631
0.03236675
0.02834127
0.02786758
0.02746117
0.02715791
0.02690953
0.02668423
0.02646134
0.02619064
0.02585232
0.02544689
0.02498886
0.02452785
0.02416458
0.02388033
0.02370957
0.02368544
0.02382808
0.02414071
0.02460839
0.02520011
0.025879
0.0266631
0.02746987
0.02824741
0.02898477
0.02968389
0.03035767
0.03103139
0.03174704
0.03244541
0.02828248
0.02782327
0.02743892
0.02716336
0.02694776
0.02675915
0.02657902
0.02636079
0.02608362
0.02574782
0.02536731
0.02496929
0.024625
0.02439073
0.02425935
0.02425707
0.02440133
0.02469513
0.02512594
0.02566826
0.02632347
0.02705797
0.02779527
0.02851307
0.02920157
0.02986212
0.03050697
0.03116073
0.03186486
0.03256053
0.02819778
0.0277579
0.02740223
0.02716256
0.02698913
0.02684727
0.02671916
0.02656373
0.02635876
0.02610361
0.02581121
0.0255052
0.02521806
0.02499516
0.0249006
0.02492146
0.0250673
0.02534064
0.02573457
0.02625928
0.02687263
0.02752357
0.02818318
0.02883339
0.0294655
0.03008107
0.03069191
0.03132215
0.03201272
0.03270522
0.02808397
0.02766784
0.02734754
0.02715164
0.02702882
0.02694214
0.02687258
0.02678536
0.02665797
0.02648776
0.02628551
0.02607162
0.02587319
0.02572096
0.02564527
0.02567186
0.02581609
0.0260813
0.02645826
0.02692591
0.0274571
0.02802494
0.02860732
0.02918889
0.02976259
0.03033067
0.03090517
0.03151007
0.03218621
0.03287655
0.02793862
0.02755073
0.02727264
0.02712809
0.0270633
0.02703867
0.02703185
0.02701502
0.02696497
0.02687848
0.02676318
0.02663583
0.02651868
0.02643645
0.02641287
0.02646785
0.02661393
0.02685449
0.02718338
0.02758609
0.02804351
0.02853583
0.02904585
0.02956166
0.03007836
0.0305993
0.03113715
0.03171653
0.03237828
0.03306669
0.02776448
0.02740898
0.02717945
0.02709297
0.02709231
0.02713477
0.02719378
0.02724548
0.02727055
0.02726193
0.02722628
0.02717701
0.02713163
0.02711008
0.02713127
0.02721086
0.02735916
0.0275797
0.02786902
0.02821762
0.02861225
0.02903856
0.02948381
0.02993959
0.03040345
0.03087971
0.03138197
0.03193555
0.03258217
0.03326924
0.02757263
0.02725189
0.02707553
0.02705226
0.02712021
0.02723286
0.02735977
0.02747684
0.02756995
0.02763307
0.02766895
0.02768741
0.02770307
0.02773279
0.02779178
0.02789248
0.02804363
0.02824897
0.02850703
0.02881207
0.02915544
0.02952628
0.02991575
0.03031807
0.03073281
0.0311668
0.03163486
0.03216339
0.03279557
0.03348112
0.02738439
0.02709746
0.02697566
0.02701832
0.02715741
0.02734149
0.0275361
0.02771565
0.02786948
0.02799342
0.02809009
0.0281675
0.02823692
0.02831056
0.02840113
0.02851987
0.02867455
0.02886905
0.02910326
0.0293733
0.02967299
0.02999626
0.03033759
0.03069386
0.03106629
0.03146241
0.0318981
0.0324012
0.03301682
0.03369944
0.02721494
0.02696202
0.02689727
0.02700875
0.02722059
0.0274755
0.02773569
0.0279742
0.02818246
0.02835817
0.02850427
0.02862781
0.02873844
0.02884692
0.02896371
0.02909788
0.02925623
0.02944274
0.02965844
0.02990177
0.03016933
0.03045688
0.03076084
0.0310797
0.03141576
0.03177733
0.03218113
0.03265639
0.03325067
0.03392582
0.02707303
0.02686119
0.02686205
0.0270478
0.02733365
0.02765723
0.02797911
0.02827169
0.02852843
0.02874829
0.02893489
0.02909511
0.02923783
0.02937268
0.02950899
0.02965493
0.02981681
0.02999869
0.03020229
0.03042722
0.03067151
0.03093245
0.03120773
0.03149668
0.03180196
0.03213184
0.03250296
0.03294519
0.03350844
0.03416591
0.02698185
0.02682578
0.02690529
0.02717055
0.02752937
0.0279173
0.02829487
0.02863547
0.02893446
0.02919165
0.0294113
0.02960053
0.029768
0.02992291
0.03007406
0.03022922
0.03039451
0.03057415
0.03077033
0.03098341
0.03121232
0.03145524
0.03171044
0.03197737
0.03225813
0.03255971
0.03289696
0.03329802
0.03381327
0.03443225
0.02698028
0.02690767
0.0270789
0.02742379
0.02785
0.02829556
0.02872047
0.02910255
0.02943742
0.0297256
0.02997192
0.03018383
0.03037017
0.03054012
0.03070248
0.03086498
0.03103386
0.03121357
0.03140671
0.03161415
0.03183536
0.03206894
0.03231326
0.03256729
0.03283179
0.03311101
0.03341532
0.03376647
0.03420852
0.03474585
0.02707686
0.0271332
0.02739523
0.02780626
0.02828593
0.0287769
0.02923781
0.02965145
0.03001286
0.03032293
0.03058695
0.03081284
0.03100986
0.03118765
0.03135537
0.03152115
0.0316916
0.03187156
0.03206399
0.03227013
0.03248977
0.03272165
0.03296401
0.03321525
0.03347461
0.03374324
0.03402548
0.0343322
0.03468573
0.03506607
0.01006918
0.01011995
0.01022918
0.01037823
0.01054585
0.01071558
0.01087605
0.01102239
0.01115304
0.01126824
0.01136939
0.01145862
0.01153841
0.01161135
0.01167991
0.01174629
0.01181228
0.0118792
0.01194786
0.01201857
0.01209122
0.01216535
0.01224027
0.01231517
0.01238927
0.01246193
0.01253273
0.01260162
0.0126682
0.01272399
0.01007799
0.01010698
0.01019549
0.01032777
0.01048178
0.01064066
0.0107923
0.01093115
0.01105548
0.01116538
0.01126215
0.01134782
0.0114248
0.0114956
0.01156264
0.01162806
0.0116936
0.01176049
0.01182947
0.01190077
0.01197418
0.0120492
0.01212515
0.01220132
0.01227724
0.01235286
0.01242892
0.01250739
0.01259062
0.01266943
0.01010897
0.0101185
0.01018276
0.01029254
0.0104272
0.01056998
0.01070839
0.01083592
0.01095052
0.01105205
0.01114164
0.01122121
0.01129313
0.01135991
0.011424
0.01148754
0.01155224
0.01161927
0.01168927
0.01176231
0.01183806
0.01191588
0.01199504
0.01207494
0.01215536
0.01223687
0.01232119
0.0124116
0.01251122
0.01260657
0.01015635
0.01015077
0.01019292
0.01027967
0.010393
0.01051693
0.01063932
0.01075292
0.01085534
0.01094613
0.01102624
0.01109754
0.01116245
0.01122359
0.01128351
0.01134447
0.0114082
0.01147584
0.01154787
0.01162416
0.01170413
0.0117869
0.01187157
0.01195749
0.01204456
0.01213363
0.0122269
0.01232801
0.01243963
0.01254455
0.01021327
0.01019552
0.01021834
0.01028318
0.01037477
0.01047847
0.01058282
0.01068041
0.01076845
0.01084622
0.01091451
0.01097524
0.01103099
0.01108466
0.01113907
0.01119669
0.01125937
0.0113282
0.01140345
0.0114847
0.01157094
0.0116609
0.01175336
0.0118474
0.01194284
0.01204053
0.0121427
0.01225285
0.01237288
0.01248311
0.01027532
0.01024714
0.01025272
0.01029696
0.010367
0.01044972
0.01053462
0.01061445
0.01068607
0.01074845
0.01080234
0.01084984
0.01089393
0.01093793
0.01098517
0.01103855
0.0111001
0.01117087
0.01125085
0.01133906
0.01143389
0.01153347
0.01163604
0.01174026
0.01184563
0.01195282
0.01206385
0.0121819
0.01230815
0.01242144
0.01033942
0.01030185
0.01029162
0.01031636
0.01036525
0.01042664
0.01049111
0.01055174
0.01060493
0.01064939
0.01068596
0.01071717
0.0107466
0.01077847
0.01081684
0.01086507
0.01092547
0.01099902
0.01108532
0.01118278
0.01128892
0.01140089
0.01151613
0.01163268
0.01174959
0.01186722
0.01198733
0.01211272
0.01224407
0.01235936
0.01040285
0.01035663
0.01033171
0.01033793
0.01036624
0.01040636
0.01044988
0.01049013
0.01052292
0.01054686
0.01056325
0.01057534
0.01058773
0.01060552
0.01063357
0.01067593
0.01073525
0.01081243
0.01090659
0.01101526
0.01113498
0.01126184
0.01139213
0.01152307
0.01165313
0.01178225
0.01191186
0.0120445
0.0121805
0.01229735
0.01046262
0.01040849
0.01037005
0.01035897
0.01036766
0.01038703
0.01040966
0.01042866
0.01043945
0.01044089
0.01043497
0.01042575
0.01041879
0.0104204
0.01043672
0.01047254
0.01053091
0.01061265
0.01071629
0.01083839
0.01097409
0.01111803
0.01126533
0.01141232
0.01155679
0.0116982
0.01183772
0.01197769
0.01211821
0.01223654
0.01051585
0.01045473
0.01040423
0.01037746
0.01036802
0.01036779
0.01037017
0.01036772
0.01035576
0.01033367
0.01030388
0.01027144
0.0102434
0.01022783
0.01023284
0.01026262
0.01032031
0.01040661
0.01051963
0.0106561
0.01080956
0.0109726
0.01113867
0.01130296
0.01146262
0.0116168
0.01176646
0.01191376
0.01205872
0.01217853
0.01056047
0.01049344
0.01043261
0.01039219
0.01036668
0.0103487
0.01033216
0.01030904
0.01027478
0.01022903
0.01017493
0.01011895
0.01007102
0.01004246
0.01004811
0.01007874
0.01013672
0.01022248
0.01033408
0.0104787
0.01064836
0.01083094
0.01101653
0.01119867
0.01137377
0.01154069
0.01170027
0.01185472
0.012004
0.01212527
0.01059545
0.0105237
0.0104545
0.01040283
0.01036382
0.01033059
0.01029734
0.01025548
0.01020059
0.01013264
0.01005574
0.009979559
0.009925242
0.009898076
0.009896544
0.009923042
0.009980388
0.01006908
0.01018694
0.01033131
0.01050265
0.01070115
0.01090516
0.01110442
0.01129421
0.0114731
0.01164192
0.01180292
0.0119562
0.0120789
0.01062082
0.01054557
0.01047007
0.01040978
0.01036024
0.0103149
0.01026797
0.01021052
0.0101382
0.01005137
0.009955802
0.009869911
0.009814249
0.009779922
0.009770951
0.009792812
0.009849359
0.0099412
0.0100654
0.01021656
0.01038952
0.01059323
0.01081195
0.01102595
0.01122845
0.01141761
0.01159429
0.01176085
0.01191752
0.01204149
0.0106371
0.01055969
0.01048005
0.01041393
0.01035713
0.01030331
0.01024659
0.01017781
0.01009273
0.009992056
0.009883726
0.009798317
0.009735676
0.009693787
0.009678476
0.009696494
0.009752346
0.009846726
0.009976201
0.01013421
0.0103138
0.01051542
0.01074402
0.01096892
0.01118087
0.01137763
0.01156008
0.01173073
0.01188991
0.01201487
0.01064555
0.01056715
0.01048548
0.01041639
0.01035577
0.01029741
0.01023537
0.01016043
0.01006838
0.009960175
0.009845019
0.00976007
0.009693389
0.00964701
0.009628027
0.009643823
0.009699246
0.009795038
0.009927497
0.01008949
0.01027286
0.01047322
0.01070701
0.01093775
0.01115479
0.01135563
0.01154118
0.01171402
0.01187457
0.01200013
0.01064716
0.01056896
0.01048734
0.01041809
0.01035714
0.01029829
0.01023572
0.01016027
0.01006773
0.009959089
0.009843558
0.009758294
0.009691374
0.00964482
0.009625711
0.00964142
0.00969678
0.009792522
0.009924939
0.01008689
0.01027025
0.01047062
0.01070444
0.01093523
0.01115232
0.01135321
0.01153881
0.0117117
0.0118723
0.0119979
0.01064275
0.01056589
0.01048632
0.01041963
0.01036171
0.01030632
0.01024794
0.01017754
0.01009094
0.009988917
0.009879431
0.009793047
0.009729667
0.009687237
0.009671537
0.009689279
0.009744929
0.009839152
0.009968496
0.01012641
0.01030596
0.01050763
0.01073632
0.01096136
0.01117348
0.0113704
0.011553
0.01172379
0.01188311
0.01200823
0.01063284
0.01055836
0.0104827
0.01042108
0.01036931
0.01032105
0.01027107
0.01021069
0.01013566
0.01004642
0.009948813
0.009861225
0.009804242
0.009768942
0.009759269
0.009780628
0.00983681
0.009928376
0.01005237
0.01020341
0.01037635
0.01058016
0.01079907
0.01101337
0.01121618
0.01140562
0.01158254
0.01174933
0.01190621
0.0120304
0.01061751
0.01054633
0.01047626
0.01042202
0.01037919
0.01034127
0.01030319
0.0102568
0.01019778
0.0101262
0.01004622
0.009967557
0.009911225
0.00988255
0.009879931
0.009905652
0.009962445
0.01005074
0.01016836
0.01031262
0.01048405
0.01068272
0.01088702
0.01108668
0.0112769
0.01145618
0.01162534
0.01178663
0.01194016
0.01206308
0.01059614
0.01052927
0.01046642
0.01042165
0.01039019
0.01036528
0.01034178
0.01031222
0.01027218
0.0102214
0.01016308
0.01010367
0.01005301
0.01002229
0.0100264
0.01005592
0.01011315
0.01019842
0.01030977
0.0104544
0.01062421
0.01080708
0.01099307
0.01117569
0.01135129
0.01151869
0.0116787
0.01183349
0.01198303
0.01210446
0.01056819
0.01050657
0.01045247
0.01041909
0.01040108
0.01039131
0.01038425
0.0103732
0.01035366
0.01032502
0.01028976
0.01025287
0.01022131
0.01020303
0.01020602
0.01023436
0.01029109
0.01037682
0.01048959
0.0106261
0.01077982
0.01094328
0.0111099
0.0112748
0.01143508
0.01158985
0.01174004
0.01188776
0.01203299
0.01215291
0.01053339
0.01047791
0.01043403
0.01041373
0.01041093
0.01041789
0.01042845
0.01043659
0.01043788
0.01043125
0.01041858
0.01040388
0.01039257
0.01039084
0.01040468
0.01043874
0.01049596
0.01057706
0.01068047
0.0108027
0.01093878
0.01108331
0.01123132
0.01137907
0.01152433
0.01166648
0.01180663
0.0119471
0.01208791
0.01220634
0.01049238
0.01044384
0.01041146
0.01040572
0.0104195
0.01044428
0.01047311
0.01050026
0.01052171
0.01053606
0.0105445
0.01055013
0.01055739
0.01057123
0.01059636
0.01063665
0.01069465
0.01077114
0.0108651
0.01097399
0.01109422
0.01122183
0.01135302
0.01148492
0.01161593
0.01174595
0.01187632
0.01200954
0.01214584
0.01226281
0.01044728
0.01040621
0.01038631
0.01039623
0.01042757
0.0104708
0.01051809
0.01056355
0.0106037
0.01063718
0.01066469
0.01068855
0.01071217
0.01073955
0.01077459
0.01082049
0.01087942
0.01095222
0.01103836
0.01113613
0.01124295
0.01135584
0.01147217
0.01158987
0.01170792
0.01182661
0.01194762
0.0120737
0.01220545
0.01232085
0.01040168
0.01036827
0.01036146
0.01038778
0.01043722
0.01049906
0.01056449
0.01062729
0.01068438
0.01073458
0.01077844
0.01081783
0.0108555
0.01089455
0.01093814
0.01098897
0.01104893
0.01111892
0.01119878
0.0112874
0.01138305
0.01148374
0.01158758
0.01169314
0.01179984
0.01190826
0.01202033
0.01213917
0.0122659
0.01237933
0.01035905
0.0103337
0.01034072
0.01038408
0.01045186
0.010532
0.01061478
0.0106937
0.01076591
0.0108305
0.01088797
0.01093996
0.0109888
0.01103715
0.01108764
0.01114254
0.01120355
0.01127158
0.01134677
0.01142852
0.01151571
0.01160694
0.01170084
0.01179642
0.01189336
0.01199244
0.01209579
0.01220685
0.01232742
0.01243783
0.01032252
0.01030654
0.01032889
0.01039014
0.01047623
0.01057392
0.01067275
0.01076622
0.01085171
0.01092849
0.01099715
0.01105922
0.01111685
0.01117239
0.01122819
0.01128631
0.0113483
0.01141514
0.01148715
0.01156404
0.01164508
0.01172925
0.01181554
0.01190315
0.01199189
0.01208251
0.0121771
0.01227923
0.01239147
0.0124966
0.01029654
0.01029252
0.01033239
0.01041221
0.010516
0.01062985
0.01074289
0.01084899
0.01094576
0.01103262
0.01111026
0.01118023
0.01124459
0.01130557
0.0113654
0.01142601
0.01148894
0.01155518
0.0116252
0.01169892
0.01177585
0.0118552
0.01193611
0.01201785
0.01210008
0.01218327
0.01226905
0.01236058
0.01246092
0.01255653
0.01028633
0.01029834
0.01035764
0.0104555
0.0105752
0.01070275
0.0108275
0.01094389
0.01104968
0.01114441
0.01122889
0.01130471
0.01137394
0.01143881
0.0115015
0.01156395
0.0116277
0.01169382
0.01176286
0.0118349
0.01190957
0.01198622
0.01206401
0.01214213
0.01221997
0.01229738
0.01237501
0.01245471
0.01253878
0.01261793
0.01029193
0.01032291
0.01039939
0.01051093
0.01064194
0.01077887
0.01091152
0.01103479
0.01114649
0.01124623
0.01133489
0.01141413
0.01148609
0.01155303
0.01161721
0.0116806
0.0117448
0.01181097
0.01187972
0.01195122
0.01202518
0.01210098
0.0121778
0.0122547
0.01233079
0.01240529
0.01247772
0.01254793
0.01261545
0.0126717
0.007001103
0.007014149
0.007046934
0.007098358
0.007162797
0.007233628
0.007305623
0.0073755
0.007441471
0.007502765
0.007559305
0.007611473
0.00765993
0.007705472
0.007748924
0.007791052
0.007832494
0.007873715
0.007914987
0.007956386
0.00799781
0.008039007
0.008079611
0.008119183
0.00815725
0.008193324
0.008226891
0.008257304
0.008283297
0.008301151
0.007001547
0.007010183
0.007038023
0.007085016
0.007145598
0.007213132
0.007282273
0.007349655
0.007413464
0.007472906
0.00752788
0.007578748
0.007626151
0.007670873
0.007713727
0.007755466
0.007796714
0.007837915
0.007879316
0.007920969
0.007962747
0.008004383
0.008045521
0.008085761
0.008124722
0.008162096
0.008197661
0.008231147
0.008261487
0.008283881
0.007002659
0.007007961
0.007030531
0.007071637
0.007126413
0.007188671
0.007253111
0.007316325
0.007376468
0.007432712
0.007484921
0.00753343
0.007578867
0.007622019
0.007663705
0.007704681
0.007745562
0.007786773
0.007828521
0.007870812
0.007913471
0.0079562
0.007998633
0.008040413
0.008081265
0.008121075
0.008159896
0.008197705
0.008233243
0.008260038
0.007007987
0.007010706
0.007028346
0.007063166
0.007111212
0.007166991
0.007225482
0.007283328
0.007338673
0.007390651
0.007439089
0.007484309
0.007526952
0.007567839
0.007607832
0.007647722
0.007688135
0.007729473
0.007771895
0.007815328
0.007859517
0.007904088
0.007948631
0.007992787
0.008036337
0.008079273
0.008121776
0.008163837
0.008203781
0.008233752
0.007019044
0.007019194
0.007031865
0.007060114
0.007100863
0.00714936
0.007200986
0.007252528
0.007302128
0.007348881
0.007392587
0.007433582
0.007472567
0.00751045
0.007548194
0.007586672
0.007626546
0.0076682
0.007711714
0.007756897
0.007803355
0.007850583
0.007898064
0.007945371
0.007992259
0.008038729
0.008084948
0.008130787
0.008174142
0.008206229
0.007035006
0.00703241
0.007039934
0.007061382
0.007094469
0.00713514
0.007179232
0.007223716
0.007266732
0.007307329
0.007345307
0.007381063
0.007415423
0.007449464
0.007484329
0.007521038
0.007560324
0.007602548
0.007647674
0.007695329
0.0077449
0.007795672
0.007846944
0.007898149
0.007948941
0.007999246
0.008049138
0.008098317
0.008144341
0.008177865
0.007053922
0.007048499
0.007050824
0.007065407
0.007090686
0.007123229
0.007159341
0.007196175
0.007231843
0.007265356
0.007296553
0.007325962
0.007354623
0.007383899
0.007415215
0.007449794
0.007488474
0.007531579
0.007578917
0.007629862
0.007683498
0.007738783
0.00779475
0.007850611
0.00790586
0.007960298
0.008013875
0.008066127
0.008114373
0.008148957
0.007073699
0.00706552
0.007062795
0.007070678
0.007088244
0.007112612
0.007140527
0.007169278
0.007196918
0.007222458
0.007245848
0.007267836
0.007289776
0.007313421
0.007340564
0.007372705
0.007410806
0.007455143
0.007505315
0.007560372
0.007619003
0.007679752
0.007741291
0.007802541
0.007862789
0.007921676
0.007979021
0.00803423
0.008084473
0.008119935
0.007092573
0.007081824
0.007074383
0.007075952
0.007086149
0.007102555
0.007122299
0.007142718
0.007161821
0.007178677
0.007193405
0.007207045
0.007221417
0.007238754
0.007261327
0.007290897
0.007328504
0.007374352
0.007427833
0.00748768
0.007552114
0.007619194
0.007687092
0.007754369
0.007820073
0.007883677
0.007944886
0.008003017
0.008055157
0.008091423
0.007109218
0.007096169
0.007084497
0.007080343
0.007083752
0.007092668
0.007104524
0.007116623
0.007126967
0.00713472
0.007140223
0.007144933
0.007151256
0.007162145
0.007180466
0.007207874
0.00724517
0.007292432
0.00734907
0.007413843
0.007484536
0.007558519
0.00763334
0.007707115
0.007778586
0.00784707
0.00791219
0.007973207
0.008027181
0.008064217
0.007122774
0.007107763
0.007092464
0.007083345
0.007080762
0.00708292
0.007087455
0.007091594
0.007093347
0.007091999
0.007088196
0.007084032
0.007083004
0.007089029
0.007105604
0.007132959
0.007170258
0.007217393
0.007274946
0.007342989
0.007419173
0.007499994
0.007581919
0.007662338
0.007739641
0.007812989
0.007881934
0.007945737
0.008001466
0.008039242
0.007132832
0.007116243
0.007098007
0.007084816
0.007077225
0.007073611
0.007071711
0.007068659
0.007062482
0.00705262
0.007040198
0.007028563
0.007023346
0.007029045
0.007044044
0.007069792
0.007106975
0.007155447
0.007214273
0.007281923
0.007360571
0.00744685
0.007535315
0.007622062
0.007704905
0.007782814
0.007855313
0.007921674
0.00797901
0.008017474
0.007139361
0.007121605
0.00710118
0.007084908
0.007073456
0.007065293
0.00705818
0.007049166
0.007036299
0.007019222
0.006999846
0.006983629
0.00697782
0.006980507
0.00699295
0.007017083
0.007054117
0.007103896
0.007164962
0.007235286
0.007313678
0.007402852
0.007496452
0.00758859
0.007676221
0.007758054
0.007833577
0.007902105
0.007960801
0.007999856
0.007142575
0.007124089
0.007102264
0.007083976
0.007069939
0.007058658
0.007047876
0.007034579
0.007016838
0.006994534
0.006970548
0.006953315
0.006945009
0.006944946
0.006955049
0.006977789
0.0070147
0.007065618
0.007128753
0.007201508
0.007281733
0.007371213
0.007468135
0.007564195
0.007655382
0.007740126
0.007817881
0.007888002
0.007947702
0.007987204
0.007142882
0.007124092
0.007101662
0.007082462
0.007067197
0.007054376
0.007041721
0.007026188
0.007005863
0.006980779
0.006954407
0.006936748
0.006926972
0.00692525
0.006933959
0.00695588
0.006992721
0.007044313
0.007108692
0.007182957
0.007264658
0.007353944
0.007452547
0.007550705
0.007643814
0.007730133
0.007809095
0.007880078
0.007940326
0.007980081
0.00714069
0.007122021
0.007099781
0.007080774
0.007065666
0.007052945
0.007040341
0.007024817
0.007004469
0.00697934
0.006952911
0.006935192
0.006925359
0.006923591
0.006932268
0.006954171
0.006991005
0.007042603
0.007106996
0.007181285
0.007263019
0.007352348
0.007450999
0.007549206
0.007642363
0.007728725
0.007807726
0.00787874
0.007939015
0.007978788
0.007136364
0.007118229
0.007096942
0.007079199
0.007065591
0.007054565
0.007043897
0.007030598
0.007012763
0.006990303
0.006966128
0.0069487
0.006940214
0.006940006
0.006950006
0.006972684
0.007009571
0.0070605
0.007123677
0.007196502
0.007276827
0.007366436
0.0074635
0.007559708
0.007651038
0.007735911
0.007813779
0.007883995
0.007943774
0.007983333
0.007130169
0.007112955
0.007093336
0.007077847
0.007066975
0.007059106
0.007052059
0.007042933
0.007029821
0.007012413
0.006992666
0.006976078
0.006969935
0.006972352
0.006984599
0.00700861
0.007045592
0.00709538
0.007156511
0.007226956
0.007305522
0.007394912
0.007488749
0.007581135
0.007669004
0.00775105
0.007826755
0.007895436
0.007954256
0.007993398
0.007122249
0.00710631
0.007089011
0.007076669
0.007069619
0.007066156
0.007064105
0.00706069
0.007054001
0.007043541
0.007030493
0.007018262
0.007012511
0.007017775
0.007032457
0.007058001
0.007095087
0.007143559
0.007202476
0.007270303
0.007349204
0.007435781
0.007524572
0.007611655
0.00769482
0.007773017
0.007845764
0.007912328
0.007969821
0.008008387
0.007112632
0.007098308
0.007083923
0.007075512
0.007073201
0.007075149
0.007079119
0.007082478
0.007083321
0.007081003
0.007076245
0.007071199
0.0070694
0.007074789
0.007090895
0.007117943
0.007155087
0.007202208
0.007259879
0.007328158
0.007404661
0.007485857
0.007568188
0.007649018
0.007726713
0.007800417
0.007869669
0.007933719
0.007989629
0.008027507
0.007101409
0.007089
0.00707805
0.007074235
0.007077404
0.007085514
0.00709619
0.007106925
0.007115831
0.007122156
0.007126305
0.007129796
0.007135074
0.007145115
0.007162801
0.007189787
0.007226862
0.007274091
0.007330862
0.007395906
0.007466974
0.007541402
0.007616704
0.007690962
0.007762899
0.007831804
0.007897286
0.007958592
0.008012767
0.00804991
0.007088869
0.007078623
0.007071534
0.007072843
0.007082044
0.007096828
0.007114594
0.007132924
0.007149956
0.007164847
0.007177777
0.007189831
0.007202859
0.007219119
0.007240884
0.007269911
0.007307225
0.007353008
0.007406625
0.007466772
0.007531629
0.007599214
0.007667661
0.007735497
0.007801736
0.007865827
0.007927453
0.007985914
0.008038278
0.008074657
0.007075675
0.007067759
0.007064828
0.007071617
0.007087202
0.007108936
0.007133925
0.007159755
0.007184619
0.007207609
0.007228726
0.007248747
0.007269046
0.007291381
0.007317541
0.007349016
0.007386746
0.00743098
0.007481282
0.007536657
0.00759575
0.007657061
0.007719214
0.007781091
0.007841944
0.007901383
0.0079592
0.008014779
0.00806527
0.008100854
0.00706297
0.007057433
0.007058777
0.007071199
0.007093297
0.007122028
0.007154154
0.007187166
0.007219314
0.007249676
0.007278121
0.007305187
0.007331915
0.007359657
0.007389823
0.007423618
0.007461851
0.007504812
0.007552267
0.007603545
0.007657677
0.007713571
0.00777021
0.007826762
0.007882683
0.007937736
0.007991841
0.008044507
0.00809303
0.008127749
0.007052262
0.007049024
0.007054577
0.007072574
0.007101101
0.007136655
0.00717563
0.007215356
0.007254103
0.007290959
0.007325725
0.007358784
0.007390938
0.007423239
0.007456803
0.007492619
0.007531387
0.007573425
0.007618655
0.00766665
0.007716744
0.007768165
0.007820163
0.007872118
0.007923644
0.007974625
0.008025101
0.008074737
0.008121068
0.008154741
0.007044921
0.007043887
0.007053529
0.007076935
0.007111646
0.007153659
0.007199015
0.007244868
0.007289472
0.007331925
0.007371997
0.007409975
0.007446513
0.007482476
0.007518787
0.007556277
0.007595569
0.007637001
0.007680602
0.007726129
0.007773131
0.007821044
0.007869296
0.007917409
0.007965091
0.008012295
0.00805915
0.008105489
0.008149182
0.008181433
0.007041765
0.007043019
0.007056781
0.007085453
0.007126009
0.007173962
0.007225067
0.007276345
0.007326022
0.007373198