/*--------------------------------*- C++ -*----------------------------------*\
| =========                 |                                                 |
| \\      /  F ield         | OpenFOAM: The Open Source CFD Toolbox           |
|  \\    /   O peration     | Version:  2506                                  |
|   \\  /    A nd           | Website:  www.openfoam.com                      |
|    \\/     M anipulation  |                                                 |
\*---------------------------------------------------------------------------*/
FoamFile
{
    version     2.0;
    format      ascii;
    arch        "LSB;label=32;scalar=64";
    class       volScalarField;
    location    "1000/air";
    object      k;
}
// * * * * * * * * * * * * * * * * * * * * * * * * * * * * * * * * * * * * * //

dimensions      [0 2 -2 0 0 0 0];

internalField   nonuniform List<scalar> 
33752
(
0.04635581
0.04651548
0.04696773
0.04759697
0.04828395
0.0489557
0.04956606
0.05010078
0.05055958
0.05094744
0.05127324
0.051548
0.05178361
0.05199196
0.05218417
0.05237004
0.05255755
0.05275265
0.05295914
0.05317886
0.05341197
0.05365746
0.0539137
0.05417917
0.05445326
0.05473736
0.05503626
0.05536173
0.05573764
0.05614231
0.04631933
0.04630933
0.04663596
0.04717424
0.04779128
0.0484073
0.04897628
0.04947592
0.04990603
0.05027068
0.05057801
0.05083842
0.05106331
0.05126411
0.05145157
0.05163508
0.05182225
0.05201862
0.05222759
0.05245056
0.05268736
0.05293677
0.05319726
0.05346793
0.0537498
0.05404761
0.05437267
0.05474849
0.05522222
0.0557976
0.04645829
0.04632222
0.04650664
0.04692392
0.04744422
0.04798307
0.04849265
0.04894253
0.04933095
0.04966036
0.0499378
0.05017307
0.05037731
0.05056194
0.05073773
0.05091413
0.05109864
0.05129652
0.05151069
0.05174195
0.05198946
0.05225148
0.05252632
0.05281355
0.05311563
0.05344026
0.05380363
0.05423613
0.05479163
0.05545733
0.04671454
0.04648678
0.04654364
0.04683704
0.04725018
0.04770032
0.04813727
0.04852722
0.04886443
0.04914955
0.04938834
0.04959008
0.04976602
0.04992804
0.05008751
0.0502543
0.05043611
0.050638
0.0508623
0.05110886
0.05137575
0.05166017
0.05195969
0.0522737
0.0526052
0.05296328
0.05336607
0.05384577
0.05445568
0.0551651
0.04701795
0.04672071
0.04667108
0.04685013
0.04715589
0.04751164
0.04786754
0.04818873
0.04846588
0.04869734
0.04888764
0.04904596
0.04918432
0.04931585
0.04945313
0.04960709
0.04978592
0.04999451
0.05023431
0.05050376
0.05079914
0.05111583
0.05144989
0.05179967
0.05216775
0.0525632
0.0530042
0.05352226
0.05416812
0.05489869
0.04733153
0.04697908
0.04684092
0.04691819
0.04712132
0.04738113
0.04765101
0.04789662
0.0481055
0.0482732
0.04840353
0.04850652
0.04859591
0.04868668
0.04879358
0.04893017
0.04910576
0.04932501
0.04958788
0.04988967
0.05022387
0.05058345
0.05096213
0.05135637
0.05176747
0.05220366
0.05268215
0.05323295
0.05390424
0.05464488
0.04763881
0.04723971
0.04702597
0.04701225
0.04711868
0.04728327
0.0474646
0.04762968
0.04776182
0.04785409
0.04791016
0.04794175
0.04796647
0.04800422
0.04807366
0.04818939
0.04836175
0.04859513
0.04888768
0.04923291
0.04961997
0.05003652
0.05047244
0.05092102
0.05138203
0.05186282
0.05237947
0.05296048
0.05365206
0.05439786
0.04793151
0.04749133
0.0472109
0.04711465
0.04713013
0.0472019
0.0472939
0.0473743
0.04742014
0.04742294
0.04739043
0.04733889
0.04728913
0.04726491
0.04728886
0.04737967
0.04754952
0.04780237
0.04813376
0.04853209
0.04898142
0.04946478
0.04996736
0.05047972
0.05099871
0.05152925
0.05208618
0.05269706
0.05340701
0.05415628
0.04820127
0.04772465
0.04738508
0.04721397
0.04714462
0.04712715
0.04713174
0.04712291
0.0470729
0.04697757
0.04684589
0.04669761
0.04655922
0.04646033
0.04642949
0.04649067
0.04665871
0.04693718
0.047318
0.04778308
0.04830908
0.0488723
0.04945255
0.05003617
0.05061767
0.0512009
0.05179994
0.05244148
0.05316961
0.05392222
0.04844048
0.04793225
0.04754096
0.04730302
0.04715612
0.04705518
0.04697556
0.04687459
0.04672509
0.04652366
0.04628263
0.04602594
0.04578585
0.04559936
0.04550365
0.04552992
0.04569658
0.04600685
0.04644836
0.04699451
0.04761145
0.04826672
0.04893421
0.04959632
0.05024534
0.05088418
0.05152635
0.05219823
0.05294408
0.05370042
0.04864406
0.04810937
0.04767412
0.04737822
0.04716267
0.0469864
0.04682745
0.04663639
0.04638657
0.04607659
0.04572111
0.04534762
0.04499477
0.04471539
0.04459296
0.04461064
0.0447796
0.04510192
0.04556799
0.04619111
0.04691093
0.0476684
0.04842966
0.04917405
0.04989241
0.05058727
0.05127226
0.05197419
0.0527376
0.05349758
0.04880967
0.04825412
0.04778311
0.04743906
0.04716547
0.04692429
0.04669419
0.04641954
0.04607551
0.0456615
0.04519324
0.04470116
0.04426965
0.04397335
0.04380313
0.04379121
0.04395865
0.04430794
0.04482177
0.04546714
0.04624648
0.04710822
0.04796444
0.04878977
0.0495749
0.05032281
0.05104789
0.0517777
0.05255752
0.05332162
0.04893859
0.04836719
0.04786888
0.04748735
0.04716786
0.04687461
0.04658489
0.04623953
0.04581461
0.0453095
0.04473997
0.0441616
0.04370306
0.04334141
0.04311964
0.04307926
0.04324495
0.04361922
0.0441811
0.04488969
0.04569802
0.04662773
0.04756992
0.04846778
0.04931151
0.05010529
0.05086465
0.05161822
0.05241212
0.0531802
0.04903084
0.04845044
0.04793385
0.04752623
0.04717429
0.04684372
0.04651004
0.04611234
0.04562702
0.04505293
0.04440632
0.043802
0.04328686
0.04287113
0.04260871
0.04254582
0.04270969
0.04310292
0.04370188
0.04446073
0.0453222
0.0462724
0.04727937
0.04823315
0.04912139
0.04994939
0.05073408
0.05150513
0.05230949
0.05308086
0.04909199
0.0485073
0.0479812
0.04755926
0.04718902
0.04683725
0.04647843
0.04605109
0.04553173
0.04491878
0.04422939
0.04361183
0.04306252
0.04261591
0.04233027
0.04225428
0.04241662
0.04281999
0.04343927
0.0442259
0.04511876
0.04607843
0.04712058
0.04810479
0.04901705
0.0498635
0.05066182
0.05144233
0.05225254
0.05302653
0.04912394
0.04854043
0.04801364
0.04758917
0.0472152
0.04685872
0.04649536
0.04606371
0.04554031
0.04492374
0.04423119
0.043611
0.04305953
0.04261122
0.04232424
0.04224722
0.04240879
0.04281159
0.0434305
0.04421691
0.04510969
0.04606943
0.0471117
0.04809607
0.04900853
0.0498552
0.05065374
0.05143448
0.05224492
0.05301921
0.04912893
0.04855184
0.04803282
0.04761721
0.04725364
0.04690888
0.04656127
0.04615038
0.04565285
0.04506782
0.0444117
0.04379944
0.04327785
0.04285702
0.04259061
0.04252467
0.04268623
0.04307779
0.04367564
0.04443386
0.04529509
0.04624547
0.04725279
0.04820716
0.04909607
0.04992474
0.05071009
0.0514818
0.05228691
0.05305959
0.04910888
0.04854274
0.04803924
0.04764303
0.0473029
0.0469852
0.04667125
0.04630323
0.04585753
0.04533395
0.04474841
0.04415667
0.04368736
0.04331715
0.04308875
0.04304331
0.04320524
0.04357684
0.04413698
0.04484463
0.04565269
0.04658277
0.04752562
0.04842503
0.04927031
0.05006535
0.05082582
0.05158042
0.05237539
0.05314504
0.04906523
0.04851324
0.04803206
0.04766463
0.04735953
0.04708226
0.04681634
0.04650878
0.04613493
0.04569465
0.04520354
0.04469294
0.04424618
0.04393789
0.04375841
0.0437395
0.04390184
0.04424761
0.04475925
0.04540353
0.04618288
0.04704504
0.04790214
0.0487293
0.04951636
0.05026596
0.05099254
0.05172369
0.05250473
0.05327034
0.04899461
0.04846148
0.04800906
0.04767869
0.04741863
0.04719299
0.0469856
0.04675041
0.04646127
0.0461171
0.04573256
0.04533499
0.04496259
0.04466756
0.0445333
0.04454219
0.04470485
0.04502299
0.04548661
0.04610895
0.04682875
0.04758682
0.04834917
0.04909515
0.04981538
0.05051217
0.05119897
0.05190245
0.05266703
0.0534278
0.04889575
0.04838527
0.0479674
0.0476815
0.047475
0.04731003
0.0471683
0.04701143
0.04681293
0.04656936
0.04629291
0.04600705
0.04574342
0.04553836
0.04542841
0.0454442
0.04560357
0.04590922
0.04634822
0.0468934
0.04751049
0.04816669
0.04883573
0.04949987
0.05015121
0.0507924
0.05143672
0.05211035
0.05285733
0.05361414
0.04876696
0.04828262
0.04790492
0.04767027
0.04752462
0.04742752
0.04735597
0.04727964
0.04717087
0.04702576
0.04685258
0.04667041
0.04650486
0.04638468
0.04633767
0.04638705
0.046547
0.04682043
0.0471986
0.04766284
0.04818932
0.048754
0.04933645
0.04992278
0.05050724
0.05109339
0.05169493
0.05233841
0.05306767
0.05382062
0.04860847
0.04815363
0.04782168
0.04764485
0.04756645
0.04754275
0.0475449
0.0475466
0.04752479
0.04747066
0.04739105
0.04730137
0.04722125
0.04717342
0.04717956
0.04725752
0.04741867
0.04766622
0.04799501
0.04839281
0.04884315
0.04932871
0.04983433
0.05035019
0.05087285
0.05140687
0.05196678
0.05257983
0.05329058
0.05404022
0.04842525
0.04800271
0.04772214
0.04760965
0.04760433
0.04765801
0.04773658
0.04781288
0.04786929
0.04789827
0.04790253
0.04789231
0.04788397
0.04789609
0.04794641
0.04804847
0.04821174
0.04843978
0.04873
0.04907516
0.04946398
0.04988358
0.05032344
0.05077646
0.0512419
0.05172678
0.05224686
0.05283042
0.05352342
0.05426953
0.04822891
0.04784117
0.04761778
0.04757612
0.04764907
0.04778281
0.04793828
0.04808611
0.04821247
0.04831167
0.04838604
0.04844409
0.04849812
0.0485618
0.04864855
0.04877092
0.04893724
0.0491513
0.04941226
0.04971478
0.05005164
0.05041522
0.05079874
0.05119819
0.0516144
0.05205523
0.05253762
0.05309133
0.05376432
0.05450536
0.04803587
0.04768705
0.04752838
0.04756459
0.04772014
0.04793461
0.04816514
0.04838066
0.0485697
0.04872854
0.04885977
0.04897082
0.04907208
0.04917525
0.04929166
0.04943107
0.04960068
0.04980441
0.05004288
0.05031372
0.05061254
0.05093406
0.05127374
0.05162942
0.05200322
0.05240387
0.05284922
0.05337055
0.05401836
0.0547494
0.04786762
0.04756674
0.0474841
0.04760605
0.04784684
0.04814016
0.04844139
0.04871887
0.04896342
0.04917279
0.04935028
0.04950312
0.04964078
0.04977365
0.04991177
0.05006387
0.05023656
0.05043393
0.05065739
0.05090596
0.05117695
0.05146686
0.05177264
0.05209313
0.05243091
0.05279467
0.05320226
0.05368561
0.05429773
0.05500772
0.04775721
0.04752139
0.04753006
0.04774403
0.04806882
0.04843577
0.04880025
0.04913217
0.04942443
0.04967586
0.04989053
0.05007587
0.05024113
0.05039616
0.0505504
0.05071208
0.05088762
0.05108127
0.051295
0.05152873
0.05178083
0.05204882
0.05233039
0.05262457
0.05293337
0.05326412
0.05363271
0.05406923
0.05462725
0.05529369
0.04774858
0.04761184
0.04772815
0.04803425
0.04843588
0.04886753
0.04928479
0.04966242
0.04999404
0.05027934
0.05052307
0.05073304
0.05091863
0.05108967
0.05125552
0.05142437
0.05160272
0.05179507
0.05200386
0.05222961
0.05247131
0.052727
0.05299453
0.05327247
0.05356137
0.05386564
0.05419628
0.0545765
0.05505313
0.05562957
0.04785741
0.04787252
0.04809461
0.04847596
0.04893683
0.04941759
0.04987329
0.05028405
0.05064328
0.0509512
0.05121308
0.05143722
0.05163346
0.05181203
0.05198267
0.05215396
0.05233276
0.05252396
0.05273042
0.05295304
0.05319117
0.05344306
0.05370646
0.05397931
0.05426058
0.05455128
0.05485594
0.05518606
0.05556526
0.05597162
0.08725089
0.08779602
0.08875057
0.08992711
0.09116759
0.09236592
0.09346294
0.09443773
0.09528769
0.09602117
0.09665295
0.09720121
0.09768549
0.09812502
0.0985375
0.0989381
0.09933873
0.09974768
0.1001695
0.1006052
0.1010529
0.1015082
0.1019653
0.1024175
0.1028574
0.1032775
0.1036694
0.1040218
0.1043146
0.1044975
0.08744593
0.08790268
0.0887563
0.08984298
0.09100876
0.0921479
0.09319611
0.09412988
0.09494497
0.09564864
0.09625503
0.09678206
0.0972492
0.0976757
0.09807928
0.09847503
0.09887468
0.0992861
0.09971332
0.1001567
0.1006137
0.1010794
0.1015476
0.1020116
0.1024649
0.102902
0.103318
0.1037079
0.104059
0.1043146
0.0878371
0.0881845
0.0888908
0.08983579
0.0908793
0.09191783
0.09288248
0.09374476
0.09449784
0.09514721
0.09570617
0.09619245
0.09662579
0.09702594
0.09741107
0.09779652
0.0981939
0.09861057
0.09904961
0.09951017
0.09998828
0.1004778
0.1009716
0.1014627
0.1019452
0.1024153
0.1028714
0.1033126
0.1037274
0.1040425
0.0883507
0.08859423
0.08914571
0.08992967
0.09082626
0.091737
0.09259238
0.09335878
0.09402673
0.09459995
0.09509108
0.09551811
0.09590166
0.09626269
0.09662046
0.09699103
0.09738608
0.09781233
0.09827146
0.09876068
0.09927373
0.09980229
0.1003374
0.1008709
0.1013966
0.1019114
0.102415
0.1029076
0.1033752
0.1037297
0.08891048
0.08906421
0.08947196
0.09009525
0.09083558
0.09160285
0.09232965
0.09297969
0.09354145
0.0940174
0.0944201
0.0947686
0.09508539
0.0953936
0.09571452
0.09606558
0.09645883
0.09690017
0.09738928
0.09792047
0.09848407
0.09906829
0.09966119
0.1002524
0.1008343
0.1014033
0.1019589
0.1025006
0.103011
0.1033916
0.08947305
0.08955038
0.08982947
0.0903
0.09088283
0.09149781
0.09208166
0.09259796
0.09303401
0.0933918
0.09368473
0.09393407
0.09416546
0.09440556
0.09467896
0.09500543
0.09539784
0.09586105
0.09639198
0.09698068
0.09761249
0.09827065
0.09893891
0.09960343
0.1002544
0.1008866
0.1014985
0.1020881
0.1026352
0.1030349
0.09001903
0.0900298
0.09019301
0.09051967
0.09094706
0.09140494
0.09183528
0.09220322
0.09249554
0.09271458
0.0928757
0.09300377
0.09312901
0.09328363
0.0934975
0.09379383
0.09418683
0.09468012
0.0952668
0.09593114
0.09665136
0.09740361
0.09816599
0.09892008
0.09965293
0.1003573
0.1010303
0.1016686
0.1022497
0.1026653
0.09053711
0.09048838
0.09054588
0.09073709
0.09101292
0.09131199
0.09158188
0.09178985
0.09192252
0.0919834
0.09199085
0.09197523
0.09197439
0.09202777
0.09217107
0.09243228
0.0928276
0.09335923
0.09401545
0.09477298
0.0956016
0.09646885
0.09734449
0.09820424
0.09903144
0.09981674
0.1005559
0.1012446
0.1018594
0.1022898
0.09101489
0.09091287
0.09087424
0.09093931
0.09106993
0.09121217
0.09131906
0.09135952
0.09132036
0.09120705
0.09104341
0.09086629
0.09072122
0.09065654
0.09071672
0.09093689
0.09133632
0.09191572
0.09265714
0.0935271
0.09448371
0.09548375
0.09648837
0.09746722
0.09839943
0.09927298
0.1000826
0.1008237
0.1014724
0.1019175
0.09143985
0.09129096
0.0911667
0.09111704
0.0911123
0.09110433
0.09105112
0.09092236
0.09070547
0.09040962
0.0900626
0.08970841
0.08940199
0.08920268
0.08916528
0.08933722
0.08974203
0.09037887
0.09122245
0.09222434
0.09332798
0.0944774
0.09562426
0.09673164
0.09777491
0.09874064
0.09962304
0.1004174
0.1011
0.1015597
0.0918025
0.09161374
0.09141567
0.09126526
0.09113899
0.09099285
0.09078899
0.09049708
0.09010597
0.08962675
0.08909173
0.08855151
0.08806973
0.08771901
0.08755891
0.08767287
0.08808315
0.08878729
0.08975756
0.09091347
0.09218096
0.09349111
0.09478718
0.09602682
0.09718263
0.0982402
0.0991939
0.10004
0.1007555
0.1012295
0.09209817
0.09187703
0.09161823
0.09138348
0.09115346
0.09088688
0.09054909
0.09010934
0.08955716
0.08890525
0.08818897
0.08746231
0.08678845
0.08628406
0.08603054
0.08609534
0.08651219
0.08727736
0.08834927
0.08965334
0.09110431
0.09257915
0.09402211
0.09538903
0.09665137
0.09779478
0.09881453
0.09970803
0.1004535
0.1009407
0.09232703
0.09208125
0.09177571
0.09147505
0.09116253
0.09079877
0.0903509
0.08978788
0.08909929
0.08829863
0.08742207
0.08651964
0.08569042
0.08505703
0.08471313
0.08473315
0.08515595
0.08597643
0.08714497
0.08857644
0.09017113
0.09180481
0.09337986
0.09485815
0.09621226
0.09742879
0.09850432
0.09943766
0.1002083
0.1007066
0.09249226
0.09222996
0.09189236
0.09154573
0.09117481
0.09074152
0.09021393
0.0895607
0.08877138
0.08785964
0.08686128
0.08582129
0.08488049
0.08414996
0.08373604
0.08372111
0.08414804
0.08501075
0.08625336
0.08778057
0.08947807
0.09123517
0.09291069
0.09447243
0.09589451
0.09716473
0.09828096
0.09924329
0.1000322
0.1005387
0.09259967
0.09232864
0.09197379
0.09160192
0.09119851
0.0907263
0.09015399
0.08945022
0.08860462
0.08763096
0.08656509
0.08545151
0.08444612
0.083661
0.08320756
0.08317252
0.08360103
0.08448643
0.08576933
0.08734876
0.08910422
0.09092574
0.09265539
0.09426208
0.0957206
0.09701953
0.09815747
0.09913526
0.09993402
0.1004451
0.09265446
0.09238246
0.09202504
0.09164876
0.09123938
0.09076011
0.09018035
0.0894692
0.08861664
0.08763666
0.08656526
0.08544698
0.08443768
0.0836494
0.08319349
0.08315659
0.08358377
0.08446831
0.08575075
0.08733003
0.08908559
0.09090737
0.09263739
0.09424453
0.09570354
0.09700294
0.09814133
0.09911952
0.09991861
0.1004299
0.09266072
0.09239517
0.09204931
0.09168875
0.09129921
0.09084414
0.09029373
0.08961802
0.08880757
0.08787673
0.08686168
0.08580759
0.08485507
0.08411507
0.08369376
0.08367327
0.08409626
0.08495641
0.08619766
0.08772446
0.08942226
0.09118011
0.09285674
0.09441986
0.09584341
0.09711509
0.09823266
0.09919616
0.09998606
0.1004933
0.09262054
0.09236833
0.09204718
0.09172106
0.09137526
0.09097327
0.09048583
0.0898842
0.08915965
0.0883267
0.08742206
0.08649596
0.08564723
0.08499812
0.08464197
0.08465284
0.08506919
0.08588557
0.08705197
0.08848285
0.09007808
0.09171303
0.09328999
0.09477069
0.09612735
0.09734634
0.09842408
0.09935934
0.1001315
0.100631
0.09253321
0.09230062
0.09201622
0.09174146
0.09146054
0.09113678
0.09074068
0.09024489
0.08964108
0.08894322
0.0881872
0.08742721
0.08672611
0.08619991
0.08592947
0.0859817
0.08638982
0.08714953
0.08821869
0.08952208
0.09097382
0.0924506
0.09389635
0.09526664
0.09653255
0.09767939
0.09870222
0.09959834
0.1003459
0.1008344
0.09239476
0.09218796
0.09195144
0.09174313
0.09154515
0.09132023
0.09103741
0.09067084
0.0902117
0.08967258
0.08908621
0.0885031
0.08798639
0.08760807
0.08742668
0.08752497
0.08792449
0.08862204
0.0895891
0.09074427
0.09201306
0.09332595
0.09462575
0.09586973
0.09703009
0.09809204
0.09904969
0.09989909
0.100617
0.1010924
0.09220042
0.09202528
0.09184698
0.09171846
0.09161844
0.09150799
0.09135384
0.09113096
0.09082963
0.09046005
0.0900504
0.08964421
0.08929565
0.08906313
0.08900041
0.08915394
0.08954628
0.09017563
0.09101576
0.09201732
0.09312299
0.09427613
0.09542785
0.09654071
0.09758964
0.09856077
0.09944798
0.1002463
0.1009317
0.101393
0.09194693
0.09180905
0.09169859
0.09166156
0.09167154
0.0916866
0.09167023
0.09159742
0.09145776
0.09125778
0.09102096
0.0907835
0.09058981
0.09048701
0.09051836
0.09071777
0.09110336
0.09167467
0.09241268
0.09328286
0.09424241
0.09524733
0.09625809
0.09724369
0.09818279
0.09906288
0.09987823
0.100624
0.101276
0.1017227
0.09163599
0.09154052
0.09150655
0.0915709
0.09170004
0.09184744
0.09197263
0.09204942
0.09206695
0.09202933
0.09195438
0.09187116
0.09181611
0.09182725
0.09193881
0.0921774
0.09255787
0.09308113
0.09373423
0.09449273
0.09532534
0.09619878
0.09708196
0.09794991
0.0987853
0.09957826
0.1003241
0.1010182
0.1016366
0.1020689
0.09127717
0.09122836
0.09127804
0.09145153
0.09170604
0.09198882
0.09225481
0.09247572
0.09264028
0.09275085
0.09282172
0.09287618
0.09294274
0.09305182
0.0932317
0.09350404
0.09388157
0.0943665
0.09495058
0.09561683
0.09634236
0.0971022
0.09787356
0.09863723
0.09937954
0.1000927
0.1007733
0.1014177
0.102003
0.1024208
0.09088788
0.09088914
0.09102816
0.0913163
0.09169939
0.09211701
0.09251903
0.09287489
0.09317292
0.09341434
0.09361093
0.09378202
0.09395123
0.09414334
0.09438116
0.09468279
0.09505951
0.09551466
0.09604371
0.09663535
0.09727367
0.09794078
0.09861938
0.0992948
0.09995649
0.1005986
0.101219
0.1018154
0.1023672
0.1027693
0.09049006
0.09054534
0.09077915
0.09118577
0.09169771
0.09224601
0.09277549
0.09325405
0.09366982
0.09402355
0.09432552
0.09459246
0.09484466
0.09510321
0.09538753
0.09571329
0.09609088
0.09652459
0.0970126
0.09754774
0.098119
0.0987134
0.09931791
0.09992119
0.100515
0.1010949
0.1016599
0.1022091
0.1027246
0.1031078
0.09011181
0.09022677
0.09056117
0.09108799
0.0917252
0.09239571
0.09304004
0.09362604
0.09414206
0.09458896
0.09497642
0.09531975
0.0956372
0.09594755
0.09626816
0.09661328
0.09699288
0.09741201
0.09787076
0.09836483
0.09888658
0.0994264
0.0999742
0.1005208
0.1010594
0.1015859
0.1020997
0.1026004
0.1030737
0.1034309
0.08979203
0.08997365
0.09041226
0.09105566
0.09180812
0.09258638
0.09332821
0.09400311
0.09460005
0.09512043
0.09557393
0.09597529
0.09634167
0.09669063
0.09703838
0.09739843
0.09778062
0.09819064
0.09862993
0.0990961
0.09958374
0.1000854
0.1005928
0.1010979
0.101594
0.1020766
0.1025435
0.1029933
0.1034142
0.1037323
0.08957201
0.08982688
0.09036576
0.09111142
0.09195923
0.09282209
0.09363864
0.09438013
0.09503637
0.09560946
0.09610944
0.09655093
0.09695072
0.09732583
0.09769199
0.09806246
0.09844718
0.09885233
0.09928027
0.09972983
0.1001969
0.1006753
0.1011577
0.1016363
0.1021039
0.102554
0.1029813
0.1033803
0.1037377
0.1039966
0.08946955
0.08979369
0.09040793
0.09122161
0.0921291
0.0930425
0.09390306
0.09468301
0.09537277
0.09597495
0.0964999
0.09696236
0.09737915
0.09776724
0.09814233
0.09851774
0.09890362
0.09930652
0.09972932
0.1001715
0.1006296
0.101098
0.1015696
0.1020366
0.102491
0.1029245
0.1033279
0.1036898
0.1039892
0.1041757
0.1038127
0.1045119
0.1056855
0.1070866
0.108536
0.1099232
0.1111943
0.1123287
0.1133251
0.1141938
0.1149514
0.1156179
0.1162147
0.1167624
0.1172799
0.1177832
0.1182846
0.1187922
0.11931
0.119838
0.120373
0.1209091
0.1214382
0.1219514
0.1224387
0.1228893
0.123291
0.1236289
0.1238829
0.1240248
0.1040789
0.1047217
0.1058145
0.1071355
0.1085159
0.1098464
0.1110704
0.1121649
0.113127
0.1139658
0.1146974
0.1153419
0.1159204
0.1164541
0.1169621
0.1174604
0.1179611
0.1184722
0.118997
0.1195351
0.1200822
0.1206318
0.1211754
0.1217036
0.1222065
0.1226741
0.1230952
0.1234563
0.123737
0.1239023
0.1045993
0.1051401
0.1060888
0.1072675
0.1085239
0.1097513
0.1108882
0.1119079
0.1128047
0.1135859
0.1142668
0.1148674
0.1154096
0.1159151
0.1164036
0.1168915
0.117391
0.1179093
0.1184489
0.1190078
0.1195803
0.1201582
0.1207318
0.1212909
0.1218254
0.1223256
0.1227812
0.1231793
0.1234971
0.1236895
0.1052528
0.1056841
0.1064689
0.1074764
0.1085761
0.1096673
0.1106858
0.1116012
0.1124048
0.1131022
0.1137083
0.1142437
0.1147312
0.1151941
0.1156532
0.1161258
0.1166242
0.1171547
0.1177183
0.1183106
0.1189234
0.119546
0.1201663
0.1207725
0.1213534
0.1218992
0.1223995
0.1228406
0.1231964
0.1234131
0.10594
0.1062737
0.1069017
0.1077338
0.1086627
0.1095973
0.1104738
0.1112599
0.1119449
0.1125336
0.1130409
0.1134888
0.1139024
0.1143072
0.1147266
0.115179
0.115677
0.116226
0.1168245
0.117465
0.1181353
0.1188206
0.1195055
0.1201754
0.1208173
0.1214202
0.1219728
0.12246
0.1228526
0.1230903
0.1066134
0.1068635
0.1073498
0.108013
0.1087673
0.109533
0.1102498
0.1108855
0.1114289
0.1118844
0.1122684
0.1126056
0.1129246
0.1132549
0.1136231
0.1140502
0.1145493
0.1151244
0.115771
0.1164766
0.1172235
0.1179916
0.1187603
0.1195112
0.1202287
0.1208995
0.1215114
0.1220475
0.1224762
0.1227329
0.1072567
0.1074339
0.1077918
0.1082945
0.1088748
0.1094645
0.1100086
0.1104764
0.1108569
0.1111557
0.1113919
0.1115941
0.1117965
0.1120342
0.1123391
0.1127355
0.1132377
0.1138481
0.1145576
0.1153476
0.1161928
0.1170653
0.1179381
0.1187878
0.1195951
0.1203447
0.1210226
0.1216109
0.1220761
0.1223512
0.1078621
0.107974
0.1082141
0.1085647
0.1089742
0.1093847
0.1097472
0.1100332
0.1102326
0.1103532
0.1104178
0.110461
0.1105241
0.1106506
0.1108793
0.1112395
0.1117473
0.1124032
0.1131924
0.1140876
0.1150536
0.1160528
0.1170502
0.1180159
0.1189268
0.1197651
0.1205155
0.1211593
0.1216621
0.1219559
0.1084191
0.1084723
0.1086046
0.1088127
0.1090578
0.1092904
0.1094676
0.1095628
0.1095676
0.1094924
0.1093649
0.1092272
0.1091309
0.109129
0.1092694
0.1095882
0.1101042
0.1108157
0.1117007
0.112721
0.1138293
0.1149762
0.1161166
0.1172135
0.1182395
0.1191746
0.1200027
0.1207047
0.1212463
0.1215589
0.1089158
0.108917
0.1089529
0.1090307
0.1091216
0.1091833
0.1091778
0.1090804
0.108884
0.1086022
0.1082688
0.1079347
0.1076619
0.1075159
0.107556
0.1078276
0.108354
0.1091312
0.110128
0.1112922
0.1125613
0.1138721
0.1151687
0.1164073
0.1175558
0.1185924
0.1195007
0.1202621
0.1208428
0.1211743
0.1093426
0.1092994
0.1092516
0.1092144
0.1091662
0.1090702
0.1088924
0.1086091
0.1082148
0.1077263
0.1071831
0.1066446
0.1061848
0.1058828
0.1058111
0.1060272
0.1065652
0.1074188
0.1085416
0.1098641
0.1113065
0.1127907
0.1142498
0.1156329
0.1169048
0.1180425
0.1190298
0.1198489
0.1204674
0.1208172
0.1096949
0.1096151
0.109498
0.1093639
0.1091963
0.1089625
0.108631
0.1081791
0.1076022
0.1069197
0.1061758
0.1054379
0.1047903
0.1043249
0.1041456
0.1043148
0.1048649
0.105787
0.1070315
0.1085204
0.1101388
0.1117944
0.1134109
0.1149321
0.1163201
0.1175518
0.1186119
0.119484
0.1201368
0.1205033
0.1099727
0.1098647
0.1096936
0.1094831
0.1092202
0.1088744
0.1084165
0.1078237
0.1070923
0.1062433
0.1053244
0.1044079
0.1035872
0.1029894
0.1027157
0.1028412
0.103402
0.1043871
0.1057384
0.1073615
0.1091433
0.1109533
0.1127083
0.114349
0.1158366
0.117148
0.1182693
0.1191857
0.1198672
0.1202475
0.1101796
0.110052
0.1098431
0.1095786
0.1092474
0.1088209
0.1082707
0.1075745
0.1067289
0.1057558
0.1047043
0.1036465
0.1027048
0.1020048
0.1016586
0.1017497
0.1023182
0.1033513
0.1047837
0.1065096
0.108405
0.1103363
0.1121958
0.1139253
0.115486
0.1168558
0.1180216
0.1189701
0.1196724
0.1200628
0.1103212
0.1101826
0.1099523
0.1096572
0.1092869
0.1088141
0.1082113
0.1074565
0.1065465
0.1055036
0.1043781
0.1032429
0.1022327
0.1014751
0.1010879
0.1011591
0.1017309
0.1027897
0.1042658
0.1060474
0.1080024
0.1100001
0.1119161
0.1136933
0.1152933
0.1166941
0.1178837
0.1188493
0.1195626
0.1199584
0.1104031
0.1102619
0.1100265
0.109724
0.1093446
0.1088617
0.1082484
0.1074834
0.1065639
0.1055125
0.1043795
0.1032379
0.1022224
0.1014606
0.10107
0.1011387
0.1017088
0.1027665
0.104242
0.1060235
0.1079787
0.1099768
0.1118934
0.1136713
0.1152719
0.1166735
0.1178636
0.1188297
0.1195434
0.1199394
0.1104291
0.1102933
0.1100685
0.1097813
0.109422
0.1089643
0.1083822
0.1076551
0.1067809
0.105782
0.104708
0.1036311
0.1026736
0.1019608
0.1016047
0.1016884
0.1022518
0.1032817
0.1047124
0.106438
0.108334
0.1102665
0.1121278
0.1138593
0.1154221
0.1167938
0.1179615
0.1189114
0.1196149
0.1200059
0.1104006
0.1102777
0.1100783
0.1098275
0.1095153
0.1091156
0.1086029
0.1079576
0.1071778
0.1062856
0.1053291
0.1043808
0.1035338
0.102915
0.102625
0.1027383
0.1032908
0.1042707
0.1056195
0.1072421
0.1090251
0.1108373
0.1125953
0.1142393
0.1157303
0.1170451
0.1181693
0.1190882
0.1197716
0.120153
0.1103158
0.1102128
0.1100521
0.1098569
0.109616
0.1093029
0.1088921
0.1083648
0.1077192
0.1069757
0.1061792
0.1053969
0.1047129
0.1042185
0.1040167
0.1041695
0.1047083
0.1056235
0.1068649
0.1083534
0.1099736
0.1116324
0.1132532
0.1147791
0.1161721
0.1174085
0.1184727
0.1193482
0.1200036
0.1203715
0.1101697
0.1100933
0.1099836
0.109861
0.1097121
0.109509
0.1092255
0.1088432
0.1083595
0.1077924
0.1071818
0.1065869
0.1060811
0.1057425
0.1056428
0.1058385
0.1063627
0.1072081
0.1083273
0.1096498
0.1110948
0.1125834
0.1140482
0.1154376
0.1167158
0.1178596
0.1188521
0.1196757
0.1202974
0.1206489
0.1099561
0.1099125
0.1098653
0.1098303
0.1097905
0.1097154
0.1095771
0.1093568
0.1090505
0.1086733
0.1082586
0.1078569
0.1075293
0.10734
0.1073472
0.107595
0.1081056
0.1088737
0.1098667
0.1110314
0.1123041
0.1136207
0.1149245
0.1161709
0.1173273
0.1183713
0.1192861
0.1200528
0.1206373
0.1209709
0.10967
0.1096652
0.109691
0.1097569
0.1098399
0.1099058
0.1099234
0.1098728
0.1097486
0.1095622
0.1093409
0.1091258
0.1089669
0.108916
0.1090194
0.1093118
0.1098104
0.1105121
0.1113935
0.1124151
0.1135282
0.1146824
0.1158315
0.1169379
0.1179733
0.1189172
0.119753
0.1204613
0.1210073
0.1213223
0.1093104
0.1093501
0.1094588
0.1096368
0.1098533
0.1100683
0.1102463
0.1103657
0.1104193
0.1104152
0.1103753
0.1103327
0.110327
0.1103997
0.1105881
0.1109198
0.1114092
0.1120551
0.1128412
0.1137387
0.1147109
0.1157189
0.1167267
0.1177036
0.1186254
0.1194738
0.1202331
0.120884
0.1213919
0.1216884
0.1088837
0.1089732
0.1091734
0.109473
0.1098304
0.1101982
0.110536
0.1108197
0.1110404
0.1112036
0.1113267
0.1114365
0.1115651
0.1117456
0.1120078
0.1123744
0.1128576
0.1134582
0.1141654
0.1149587
0.1158115
0.1166943
0.1175793
0.1184416
0.1192613
0.1200224
0.1207103
0.1213066
0.1217775
0.1220556
0.1084046
0.1085486
0.1088477
0.1092758
0.1097783
0.1102986
0.1107908
0.1112284
0.1116013
0.1119129
0.1121776
0.1124176
0.1126593
0.1129299
0.113254
0.1136505
0.1141305
0.1146963
0.1153413
0.1160514
0.1168073
0.1175873
0.1183696
0.1191347
0.1198659
0.1205495
0.1211724
0.1217174
0.1221523
0.1224124
0.1078956
0.1080987
0.1085031
0.1090641
0.1097119
0.1103796
0.1110163
0.1115936
0.1121005
0.1125396
0.1129234
0.113271
0.1136051
0.1139488
0.1143231
0.1147446
0.1152238
0.115764
0.1163618
0.117008
0.1176885
0.1183871
0.119087
0.1197724
0.1204295
0.1210462
0.1216109
0.1221077
0.1225071
0.1227483
0.1073906
0.1076569
0.1081703
0.108864
0.1096515
0.1104557
0.1112218
0.1119205
0.1125407
0.1130851
0.1135652
0.1139985
0.1144053
0.1148062
0.1152201
0.1156618
0.1161417
0.1166641
0.1172279
0.1178269
0.1184512
0.1190882
0.1197248
0.1203476
0.1209448
0.1215054
0.1220186
0.12247
0.1228331
0.1230536
0.1069395
0.1072695
0.1078888
0.1087061
0.1096185
0.1105401
0.1114143
0.1122115
0.1129218
0.1135479
0.1141016
0.1145993
0.1150603
0.1155036
0.1159467
0.116404
0.1168855
0.1173963
0.1179368
0.1185033
0.1190881
0.1196816
0.1202724
0.1208491
0.1214007
0.1219165
0.1223857
0.1227946
0.1231201
0.1233166
0.106601
0.1069879
0.1076969
0.108614
0.1096235
0.1106336
0.1115871
0.1124554
0.1132291
0.113912
0.1145158
0.1150571
0.1155542
0.1160258
0.1164885
0.1169564
0.1174395
0.1179435
0.1184699
0.1190161
0.1195763
0.1201421
0.1207036
0.1212501
0.1217708
0.1222546
0.1226898
0.1230621
0.1233508
0.1235203
0.1064227
0.106847
0.1076106
0.1085858
0.10965
0.1107088
0.1117054
0.1126117
0.1134189
0.1141313
0.114761
0.1153243
0.1158396
0.1163251
0.1167976
0.1172707
0.1177546
0.1182554
0.118775
0.1193116
0.11986
0.1204126
0.12096
0.1214919
0.1219972
0.1224644
0.1228804
0.1232298
0.123492
0.1236382
0.1133472
0.1141939
0.1155557
0.1171264
0.1187137
0.1202166
0.1215884
0.1228135
0.123894
0.124842
0.1256755
0.1264155
0.1270836
0.1277009
0.1282864
0.1288558
0.1294211
0.1299899
0.1305656
0.1311474
0.1317312
0.1323099
0.1328747
0.1334154
0.1339208
0.1343791
0.1347774
0.1351014
0.1353347
0.1354592
0.113655
0.1144541
0.1157393
0.1172321
0.1187525
0.1201999
0.1215259
0.1227122
0.123759
0.1246775
0.1254853
0.1262031
0.1268531
0.1274565
0.1280325
0.1285972
0.1291623
0.1297352
0.1303187
0.1309115
0.1315083
0.1321017
0.1326818
0.1332379
0.1337587
0.1342322
0.1346456
0.1349844
0.1352311
0.1353645
0.1142991
0.1149735
0.1160979
0.1174409
0.1188356
0.1201793
0.1214182
0.1225297
0.1235111
0.1243716
0.1251283
0.125802
0.1264154