/*--------------------------------*- C++ -*----------------------------------*\
| =========                 |                                                 |
| \\      /  F ield         | OpenFOAM: The Open Source CFD Toolbox           |
|  \\    /   O peration     | Version:  2506                                  |
|   \\  /    A nd           | Website:  www.openfoam.com                      |
|    \\/     M anipulation  |                                                 |
\*---------------------------------------------------------------------------*/
FoamFile
{
    version     2.0;
    format      ascii;
    arch        "LSB;label=32;scalar=64";
    class       volScalarField;
    location    "1000/air";
    object      nut;
}
// * * * * * * * * * * * * * * * * * * * * * * * * * * * * * * * * * * * * * //

dimensions      [0 2 -1 0 0 0 0];

internalField   nonuniform List<scalar> 
33752
(
0.00735376
0.007366865
0.007403227
0.007452091
0.007503495
0.00755209
0.007595036
0.007631815
0.00766279
0.00768856
0.007709911
0.00772772
0.007742895
0.007756322
0.007768823
0.007781116
0.007793781
0.007807243
0.007821761
0.007837444
0.007854271
0.007872133
0.007890873
0.007910341
0.007930461
0.007951301
0.007973186
0.007996946
0.008024283
0.008053582
0.007353967
0.007353072
0.00737915
0.007420539
0.007466228
0.00751037
0.007550102
0.007584232
0.00761308
0.007637154
0.007657168
0.007673949
0.007688368
0.007701281
0.007713483
0.007725668
0.00773839
0.007752046
0.007766863
0.007782919
0.007800166
0.007818474
0.007837693
0.007857716
0.00787858
0.007900601
0.007924577
0.007952194
0.007986843
0.008028695
0.007375352
0.007363136
0.007375933
0.007405879
0.007442534
0.007479689
0.007514198
0.007544126
0.007569555
0.007590801
0.007608457
0.007623283
0.007636117
0.00764781
0.00765916
0.007670861
0.007683462
0.007697333
0.007712665
0.007729486
0.007747692
0.007767113
0.00778758
0.007809016
0.007831562
0.007855749
0.00788273
0.007914695
0.007955516
0.008004127
0.00741091
0.007389714
0.007389483
0.007406732
0.007432654
0.007461264
0.007488994
0.007513572
0.007534574
0.007552091
0.007566561
0.00757867
0.007589246
0.007599165
0.007609262
0.007620262
0.007632722
0.007646994
0.007663217
0.007681339
0.00770117
0.00772245
0.007744949
0.007768575
0.007793503
0.007820361
0.007850443
0.007886068
0.00793106
0.007983034
0.007450088
0.007422017
0.007410731
0.007416124
0.007431236
0.007450693
0.007470835
0.007489195
0.007504929
0.007517862
0.007528279
0.007536823
0.007544359
0.007551849
0.007560211
0.007570242
0.007582532
0.007597412
0.007614947
0.007634962
0.007657126
0.007681033
0.007706329
0.00773284
0.007760705
0.007790548
0.007823658
0.007862301
0.007910111
0.007963799
0.007486105
0.007453007
0.007433166
0.007428642
0.007433943
0.007444462
0.007456769
0.007468403
0.007478203
0.007485721
0.007491144
0.007495145
0.007498713
0.007502995
0.007508955
0.007517644
0.007529737
0.007545543
0.007564989
0.007587594
0.0076129
0.007640266
0.007669147
0.007699219
0.007730527
0.007763625
0.007799728
0.007840986
0.007890849
0.007945445
0.007516602
0.007479799
0.007453548
0.007441091
0.007437926
0.007440123
0.007444727
0.0074494
0.007452678
0.007453891
0.007453224
0.007451377
0.00744966
0.007449487
0.007452402
0.007459434
0.007471331
0.007488364
0.007510305
0.007536616
0.007566237
0.007598193
0.007631652
0.007666033
0.007701315
0.007737974
0.007777133
0.00782083
0.007872379
0.007927531
0.007541614
0.007501971
0.007470856
0.007452091
0.007441715
0.007436331
0.0074335
0.007431108
0.007427255
0.007421079
0.007412983
0.007404242
0.007396362
0.007391143
0.00739033
0.007395349
0.007407098
0.007425805
0.007451009
0.007481672
0.00751642
0.007553829
0.007592682
0.007632232
0.007672139
0.007712758
0.007755134
0.007801253
0.007854354
0.007909942
0.007562146
0.00752023
0.007485313
0.007461411
0.007444816
0.007432497
0.007422656
0.007413036
0.007401267
0.007386953
0.007370656
0.007353852
0.007338566
0.007327102
0.007321714
0.007324284
0.007335938
0.00735686
0.007386257
0.00742252
0.007463634
0.007507604
0.007552769
0.007598033
0.00764295
0.007687784
0.007733555
0.007782167
0.00783681
0.007892823
0.007579554
0.007535744
0.007497686
0.007469421
0.007447341
0.007428672
0.007412217
0.007395161
0.007375244
0.007352112
0.007326662
0.00730072
0.007276805
0.007257845
0.007246912
0.007246521
0.00725811
0.007281819
0.007316452
0.007359645
0.007408415
0.007460032
0.007512352
0.007563975
0.007614313
0.007663593
0.007712813
0.007763895
0.007820053
0.007876521
0.007594865
0.007549447
0.007508694
0.00747662
0.007449661
0.007425239
0.007402569
0.007378209
0.007349992
0.007317766
0.007282619
0.007246674
0.007212946
0.007185083
0.00717148
0.007170179
0.007181951
0.007206819
0.007243866
0.007294758
0.00735244
0.00741267
0.007472766
0.007531112
0.007587048
0.007640816
0.007693466
0.007746988
0.00780463
0.007861531
0.007608622
0.007561877
0.007518812
0.007483424
0.007452197
0.007422691
0.007394344
0.007363116
0.007327011
0.007285947
0.007241092
0.007194738
0.007153132
0.007124005
0.007106182
0.007102262
0.007113917
0.00714119
0.007182411
0.007234645
0.007298697
0.00736795
0.007436018
0.007501041
0.007562402
0.007620438
0.007676304
0.007732085
0.007791111
0.007848456
0.00762107
0.007573235
0.007528262
0.007490106
0.007455311
0.007421566
0.007388316
0.007351141
0.007308131
0.007259187
0.00720542
0.007150509
0.007106714
0.007071776
0.007049293
0.007042781
0.007054273
0.007083796
0.007129297
0.007187035
0.007252927
0.007329191
0.00740463
0.007475694
0.00754185
0.007603591
0.007662216
0.007719923
0.00778013
0.007837883
0.007631986
0.007583462
0.007537065
0.007496788
0.007459257
0.007422284
0.007385245
0.007343505
0.007295186
0.007240125
0.007179428
0.007121734
0.007072729
0.007032799
0.007006516
0.006997875
0.007009162
0.007040398
0.007089241
0.007151442
0.007221923
0.007300324
0.007381345
0.007457099
0.007526918
0.007591437
0.007652105
0.007711232
0.007772316
0.007830392
0.007641384
0.007592432
0.007545133
0.007503469
0.007464157
0.007425106
0.007385681
0.007341149
0.00728964
0.007230945
0.007166252
0.007106976
0.007054677
0.007011754
0.006983186
0.006973218
0.006984286
0.007016409
0.007067081
0.007131767
0.007205011
0.007284431
0.007368482
0.00744681
0.00751862
0.007584647
0.007646425
0.007706326
0.007767902
0.007826216
0.007648987
0.007599941
0.007552303
0.007510044
0.007469988
0.007430089
0.007389865
0.007344564
0.00729233
0.007232961
0.00716765
0.007107853
0.007055097
0.007011786
0.006982899
0.006972675
0.006983548
0.007015535
0.007066127
0.007130779
0.007204025
0.007283475
0.007367565
0.007445926
0.007517768
0.007583829
0.007645641
0.007705575
0.007767179
0.007825521
0.007654662
0.007605836
0.007558408
0.007516339
0.007476551
0.007437103
0.007397647
0.007353597
0.007303109
0.007246043
0.007183514
0.007124266
0.007073912
0.007032843
0.007005627
0.006996243
0.007006967
0.007037811
0.007086422
0.007148526
0.007219009
0.0072975
0.007378625
0.00745448
0.007524398
0.007589019
0.007649788
0.007709009
0.007770179
0.007828367
0.007658492
0.007610125
0.007563377
0.007522202
0.007483623
0.007445776
0.007408487
0.007367481
0.007320897
0.007268672
0.007211925
0.00715444
0.007108448
0.007071671
0.007047687
0.007039994
0.007050602
0.00707952
0.007124667
0.007182259
0.00724816
0.007324576
0.007400168
0.007471428
0.007537778
0.007599695
0.007658484
0.007716337
0.007776671
0.007834562
0.007660775
0.007612983
0.007567248
0.007527513
0.007490911
0.007455639
0.007421615
0.007385061
0.007344029
0.007298486
0.007249583
0.007199695
0.007155135
0.007123544
0.007103729
0.007098258
0.007108771
0.007135275
0.007176054
0.00722812
0.007292245
0.007361645
0.007429875
0.007495123
0.007556728
0.007614998
0.007671084
0.007727052
0.00778623
0.007843716
0.007661683
0.007614639
0.007570122
0.007532176
0.007498107
0.007466161
0.00743617
0.007404986
0.007370544
0.007332734
0.007292645
0.007252386
0.007214952
0.007184078
0.007168075
0.007164932
0.007175369
0.007199353
0.007235902
0.007286686
0.007344418
0.007404763
0.007465015
0.007523571
0.007579763
0.007633808
0.007686719
0.007740457
0.007798259
0.007855252
0.007661718
0.007615413
0.007572107
0.007536094
0.007504908
0.00747682
0.007451327
0.007425951
0.007398559
0.007368819
0.007337617
0.007306732
0.007278632
0.007256215
0.007242528
0.007240059
0.007250195
0.007272992
0.007307139
0.007350141
0.007398894
0.007450602
0.007503097
0.007554973
0.00760562
0.007655225
0.00770474
0.007756058
0.007812377
0.007868916
0.00766106
0.007615372
0.007573133
0.007539084
0.007511021
0.007487177
0.007466486
0.007447073
0.007426608
0.007404735
0.007381963
0.007359689
0.00733985
0.007324678
0.007316366
0.007316737
0.007326843
0.007346767
0.007375597
0.007411602
0.007452668
0.007496742
0.007542134
0.007587718
0.007633009
0.007678216
0.007724308
0.007773167
0.007827964
0.007884046
0.007659085
0.007613909
0.007572711
0.007540806
0.007516195
0.007496958
0.007481364
0.007467702
0.007453995
0.007439376
0.007424152
0.007409489
0.00739676
0.007387652
0.007383806
0.007386558
0.007396708
0.007414373
0.007438975
0.007469366
0.007504088
0.007541661
0.00758082
0.007620768
0.007661111
0.007702144
0.007744866
0.007791238
0.007844466
0.007900125
0.007654343
0.007609871
0.007570164
0.007540999
0.007520426
0.007506216
0.007496051
0.007487993
0.007480326
0.007472281
0.007463915
0.007455756
0.007448948
0.007444733
0.007444546
0.007449283
0.007459573
0.007475569
0.007496929
0.007523009
0.007552679
0.007584887
0.007618742
0.0076536
0.00768937
0.007726473
0.007765994
0.00780996
0.007861675
0.007916891
0.007644595
0.007601819
0.007564999
0.00753984
0.007524247
0.0075156
0.007511122
0.007508562
0.007506412
0.007503962
0.007501179
0.007498523
0.007496783
0.007496932
0.007499749
0.007506143
0.007516658
0.007531474
0.007550406
0.007572876
0.007598322
0.007626035
0.007655392
0.007685995
0.007717825
0.007751385
0.007787864
0.007829402
0.007879443
0.007934109
0.007630736
0.00759086
0.007558582
0.007538856
0.007529191
0.007526538
0.007527819
0.007530581
0.007533458
0.007535828
0.007537642
0.007539269
0.007541336
0.007544601
0.007549795
0.007557553
0.007568316
0.007582281
0.00759939
0.007619359
0.007641756
0.007666084
0.007691911
0.007718986
0.007747392
0.00777771
0.007811209
0.007850144
0.007898141
0.0079519
0.007617096
0.007580956
0.007554394
0.007541102
0.007537916
0.007541344
0.007548172
0.00755588
0.007563245
0.007569725
0.007575304
0.007580322
0.007585331
0.007590981
0.00759791
0.007606667
0.007617654
0.007631078
0.007646949
0.007665095
0.007685219
0.007706966
0.007730024
0.00775423
0.007779709
0.007807054
0.007837539
0.00787347
0.007918659
0.007970705
0.00760762
0.007576497
0.007556862
0.007550611
0.007553935
0.007563128
0.007574936
0.007586998
0.007598196
0.007608074
0.007616661
0.007624303
0.007631531
0.007638949
0.007647149
0.007656644
0.007667816
0.00768089
0.007695918
0.007712804
0.007731334
0.007751241
0.007772275
0.007794297
0.0078174
0.007842085
0.007869484
0.007901774
0.007942806
0.007991497
0.007605312
0.00758222
0.00757113
0.007572111
0.00758144
0.00759565
0.007611615
0.007627238
0.007641509
0.007654044
0.007664917
0.007674496
0.007683316
0.007691976
0.007701056
0.007711066
0.007722393
0.007735278
0.007749814
0.00776595
0.007783527
0.007802323
0.007822107
0.007842716
0.007864141
0.00788667
0.00791108
0.007939043
0.007973926
0.008015877
0.007612769
0.00760176
0.00759907
0.007605936
0.007619802
0.007637683
0.00765656
0.007674626
0.00769093
0.007705134
0.007717349
0.007727977
0.007737579
0.007746778
0.00775618
0.007766316
0.0077776
0.007790301
0.007804541
0.007820302
0.007837454
0.007855794
0.007875091
0.007895138
0.007915817
0.007937168
0.007959496
0.007983616
0.008011214
0.008040651
0.06804376
0.06855103
0.06930171
0.07012943
0.07093194
0.07165561
0.07228535
0.07282118
0.07326942
0.07364116
0.07394957
0.0742085
0.07443147
0.074631
0.07481799
0.07500133
0.07518758
0.07538084
0.07558286
0.07579323
0.07600977
0.07622897
0.07644634
0.07665672
0.07685422
0.07703159
0.07717879
0.07727968
0.07730675
0.07723794
0.06828851
0.06880581
0.06953974
0.07034034
0.07111703
0.07181992
0.07243094
0.07295106
0.07338527
0.07374397
0.07404025
0.07428817
0.07450166
0.07469369
0.07487554
0.07505635
0.07524273
0.07543867
0.07564557
0.07586261
0.07608708
0.07631491
0.07654109
0.07675989
0.0769648
0.07714765
0.07729668
0.07739267
0.07740238
0.07729929
0.06868972
0.06916892
0.06983784
0.07056977
0.07128607
0.07193959
0.072508
0.07299126
0.07339247
0.07372107
0.07399003
0.07421383
0.07440712
0.07458357
0.07475509
0.07493112
0.07511824
0.07532003
0.07553717
0.07576782
0.07600816
0.07625296
0.07649611
0.07673092
0.07694994
0.07714397
0.07729987
0.07739644
0.07739804
0.07727997
0.0691711
0.06959124
0.07016891
0.07080587
0.0714372
0.07201823
0.0725236
0.07295017
0.07329965
0.07358071
0.07380652
0.07399241
0.07415413
0.0743065
0.07446228
0.07463136
0.07482022
0.07503175
0.07526541
0.07551774
0.07578307
0.07605434
0.07632377
0.07658327
0.07682426
0.0770366
0.07720634
0.07731153
0.07731579
0.0771958
0.06965999
0.07002281
0.07050764
0.07104261
0.07157742
0.07207133
0.07249755
0.07285018
0.0731303
0.07334671
0.0735135
0.0736474
0.07376588
0.07388542
0.07402005
0.07418031
0.07437253
0.07459862
0.07485631
0.07513979
0.07544075
0.07574948
0.07605586
0.07634992
0.0766217
0.07686019
0.07705093
0.07717175
0.07718605
0.07707087
0.07011834
0.07043273
0.07083391
0.07127036
0.0717056
0.07210396
0.07243857
0.07270227
0.07289674
0.07303218
0.07312442
0.0731923
0.07325567
0.07333352
0.07344166
0.07359148
0.07378919
0.07403547
0.07432571
0.07465105
0.07499966
0.07535813
0.07571319
0.07605249
0.07636447
0.07663713
0.07685562
0.07699775
0.07702689
0.07692003
0.07053665
0.07081084
0.07113845
0.07148286
0.07181915
0.07211694
0.07235025
0.07251213
0.07260663
0.07264637
0.0726496
0.07263796
0.07263422
0.07266015
0.07273479
0.07287166
0.07307735
0.07335099
0.07368468
0.07406481
0.07447421
0.0748952
0.07531091
0.07570621
0.07606763
0.07638206
0.07663429
0.07680226
0.07684945
0.0767528
0.07091586
0.07115572
0.07141803
0.07167678
0.0719163
0.07211065
0.07223542
0.07228546
0.07226869
0.07220019
0.07209985
0.07199293
0.07190737
0.07187011
0.07190392
0.07202516
0.07224117
0.07254937
0.0729377
0.07338659
0.07387259
0.07437164
0.07486178
0.07532425
0.07574362
0.07610636
0.07639725
0.0765945
0.0766619
0.07657649
0.0712569
0.07146697
0.07167093
0.07185038
0.07199656
0.07208698
0.07209896
0.07203133
0.07189527
0.07170703
0.07149051
0.07127561
0.07109568
0.07098333
0.07096644
0.07106742
0.07129575
0.07164701
0.07210345
0.0726361
0.07321293
0.07380293
0.07437869
0.07491795
0.07540331
0.07582029
0.07615379
0.07638267
0.07647154
0.07639785
0.07155977
0.07174391
0.07189603
0.072003
0.07206106
0.07205003
0.07194943
0.07176299
0.07150351
0.07118972
0.07084852
0.07051434
0.07022517
0.07001879
0.06992587
0.06999212
0.07023303
0.07064263
0.07119435
0.0718349
0.07252005
0.0732131
0.07388314
0.07450535
0.07506088
0.07553496
0.07591301
0.0761748
0.07628574
0.07622381
0.07182378
0.07198566
0.07209263
0.07213506
0.07211257
0.07200641
0.07179888
0.0714979
0.07111757
0.07067785
0.07020785
0.0697427
0.06931424
0.06895883
0.06866868
0.06863834
0.06888594
0.06940456
0.07016374
0.07098909
0.0718195
0.07263015
0.07340013
0.07410734
0.07473349
0.07526433
0.07568617
0.07597997
0.07611217
0.07606158
0.07204856
0.07219183
0.07226084
0.07224811
0.07215539
0.07196474
0.07166148
0.07125681
0.07076492
0.07020608
0.06960767
0.06898792
0.06830072
0.06769441
0.06730763
0.06722905
0.06749159
0.06808572
0.06896116
0.07001969
0.07112488
0.07208395
0.07295758
0.07374688
0.07443936
0.07502275
0.07548478
0.07580768
0.07595904
0.07591848
0.07223412
0.07236275
0.07240165
0.07234464
0.07219472
0.07193454
0.07155219
0.07106082
0.07047419
0.06981123
0.06908893
0.06825881
0.06733641
0.0665775
0.06610087
0.06598448
0.06626199
0.06692102
0.06790411
0.06911528
0.07043395
0.0716053
0.07258469
0.07344729
0.07419654
0.0748242
0.07531978
0.07566682
0.07583395
0.07580152
0.07238194
0.07249958
0.0725167
0.07242757
0.07223583
0.07192463
0.07148429
0.07092888
0.07027162
0.06952908
0.06870277
0.06765207
0.06660275
0.0657441
0.06520192
0.06505755
0.06534637
0.06605388
0.0671165
0.06843043
0.06986458
0.07124269
0.07231146
0.07322998
0.0740209
0.07468066
0.07520043
0.07556481
0.07574319
0.07571646
0.07249254
0.07260351
0.07260763
0.07249942
0.07228293
0.07194172
0.07146757
0.07087502
0.07017712
0.069389
0.06850331
0.06733317
0.06621041
0.0652974
0.06471886
0.06455844
0.06485267
0.06558588
0.06669094
0.06805921
0.06955812
0.07104543
0.0721632
0.07311195
0.0739251
0.07460188
0.07513444
0.07550796
0.07569222
0.07566828
0.07256738
0.07267574
0.07267567
0.07256169
0.07233816
0.0719892
0.07150689
0.07090624
0.07020068
0.0694056
0.06851373
0.06733828
0.06621094
0.06529411
0.06471253
0.06454979
0.06484238
0.06557459
0.06667921
0.06804752
0.0695467
0.07103432
0.07215245
0.07310158
0.07391511
0.07459225
0.07512515
0.07549894
0.07568337
0.07565947
0.07260722
0.07271683
0.07272108
0.0726143
0.07240108
0.07206636
0.07160136
0.07102155
0.07034136
0.06957799
0.06873327
0.06766687
0.06660397
0.06573403
0.06518283
0.06503162
0.06531564
0.06602025
0.06708166
0.06839563
0.06983053
0.0712095
0.07227931
0.07319891
0.07399094
0.07465181
0.07517259
0.07553777
0.07571665
0.07568993
0.07261187
0.0727264
0.07274289
0.07265538
0.07246859
0.07216824
0.07174436
0.07121217
0.0705874
0.06989
0.06913744
0.06828155
0.06733721
0.06656004
0.06606885
0.06594149
0.0662114
0.0668659
0.06784709
0.06905824
0.07037789
0.07155042
0.07253143
0.07339567
0.07414667
0.07477613
0.07527336
0.07562175
0.07578976
0.0757575
0.07257969
0.07270268
0.07273863
0.07268115
0.07253485
0.07228633
0.07192414
0.07146214
0.07091713
0.07031072
0.06967082
0.06901555
0.0682991
0.06766859
0.06726247
0.06716941
0.06742201
0.06801027
0.06888314
0.06994134
0.07104712
0.07200788
0.07288376
0.07367544
0.07437045
0.07495639
0.07542075
0.07574555
0.0758982
0.07585807
0.07250859
0.07264284
0.07270455
0.07268636
0.07259218
0.07240945
0.07212521
0.07175059
0.07130268
0.07080295
0.07028102
0.06977187
0.06930704
0.06892292
0.06860972
0.06856214
0.06879797
0.06930956
0.07006545
0.07088945
0.07172075
0.07253356
0.07330646
0.07401699
0.07464661
0.07518082
0.07560568
0.07590193
0.07603589
0.07598616
0.07239487
0.07254308
0.07263622
0.07266517
0.0726323
0.07252541
0.07233041
0.07205458
0.07171397
0.07132886
0.0709265
0.07054097
0.07020963
0.0699696
0.06985062
0.0698977
0.07012553
0.07052719
0.07107503
0.07171465
0.07240104
0.0730968
0.07377049
0.07439687
0.07495674
0.07543496
0.0758167
0.0760815
0.07619464
0.07613389
0.0722352
0.07240004
0.0725297
0.07261236
0.07264771
0.07262306
0.07252362
0.07235195
0.07212261
0.07185318
0.07156766
0.07129536
0.07106868
0.07091929
0.07087405
0.07095438
0.07116872
0.07151155
0.07196399
0.07249598
0.07307457
0.07366799
0.07424826
0.07479258
0.07528312
0.07570499
0.07604281
0.07627522
0.07636669
0.07629443
0.07202786
0.07221191
0.07238277
0.07252463
0.07263311
0.07269391
0.07269158
0.07262473
0.07250426
0.07234638
0.07217079
0.07200174
0.07186603
0.07178934
0.07179327
0.07189296
0.07209457
0.07239429
0.07277886
0.07322762
0.07371611
0.0742195
0.07471508
0.07518355
0.07560892
0.07597725
0.07627303
0.07647427
0.07654472
0.07646094
0.07177342
0.07197965
0.07219613
0.07240168
0.07258639
0.07273318
0.07282554
0.07285983
0.07284249
0.07278665
0.07270991
0.07263273
0.07257648
0.0725615
0.07260541
0.07272041
0.07291173
0.07317723
0.07350776
0.07388854
0.07430139
0.0747277
0.0751498
0.07555193
0.07592007
0.07624071
0.07649836
0.07667072
0.07672116
0.07662631
0.0714745
0.07170676
0.07197358
0.07224645
0.07250877
0.07273975
0.07292158
0.07304938
0.07312615
0.07316182
0.07317112
0.07317139
0.0731809
0.07321707
0.07329422
0.07342227
0.07360604
0.07384483
0.0741327
0.07445957
0.07481253
0.07517722
0.07553954
0.07588646
0.07620584
0.07648527
0.07670963
0.07685652
0.07688914
0.07678423
0.07114171
0.07140337
0.07172395
0.07206572
0.07240455
0.07271546
0.072979
0.07318972
0.07334846
0.07346279
0.07354513
0.0736105
0.07367462
0.07375234
0.07385615
0.07399506
0.07417395
0.07439329
0.07464946
0.07493538
0.0752416
0.07555741
0.07587182
0.07617415
0.07645391
0.07669964
0.07689663
0.07702251
0.0770405
0.07692738
0.07079787
0.07108866
0.07146164
0.0718693
0.07227942
0.07266247
0.07299713
0.07327782
0.0735041
0.07368231
0.0738234
0.07394072
0.07404822
0.07415907
0.07428448
0.0744328
0.07460902
0.07481456
0.0750475
0.07530307
0.07557444
0.07585349
0.07613157
0.07639988
0.07664928
0.07686923
0.07704551
0.07715598
0.07716408
0.07704622
0.07047364
0.07078668
0.0712027
0.07166607
0.07213632
0.0725788
0.0729705
0.07330569
0.07358332
0.07380938
0.07399414
0.0741499
0.0742895
0.07442497
0.07456668
0.07472255
0.07489765
0.0750941
0.07531118
0.07554571
0.07579267
0.07604577
0.07629803
0.07654204
0.0767698
0.0769717
0.07713433
0.07723631
0.07724182
0.07712593
0.07019829
0.07051604
0.07095605
0.07145679
0.07196889
0.07245192
0.07288271
0.07325409
0.07356521
0.07382222
0.07403513
0.07421573
0.07437615
0.07452773
0.07468027
0.0748414
0.07501624
0.07520729
0.07541458
0.07563591
0.07586737
0.07610384
0.07633941
0.07656766
0.07678151
0.07697239
0.07712826
0.07722971
0.07724332
0.07714237
0.0699997
0.07029626
0.07073721
0.07125198
0.07178199
0.0722823
0.07273053
0.07311771
0.07344349
0.07371424
0.07393992
0.07413204
0.07430233
0.07446174
0.07461969
0.0747836
0.07495854
0.07514715
0.07534976
0.0755646
0.07578831
0.07601629
0.07624318
0.07646312
0.07666965
0.07685514
0.07700922
0.07711558
0.07714651
0.07707974
0.1385406
0.140152
0.1426504
0.1453968
0.1480157
0.1503367
0.1523176
0.1539686
0.1553232
0.1564251
0.1573219
0.1580608
0.1586864
0.1592389
0.1597527
0.1602556
0.1607677
0.1613015
0.1618623
0.1624486
0.1630534
0.1636658
0.1642718
0.1648557
0.1654002
0.1658862
0.1662913
0.1665883
0.1667487
0.1667712
0.1392431
0.1407948
0.1431801
0.1458037
0.148317
0.1505533
0.1524656
0.1540598
0.1553652
0.1564236
0.1572814
0.1579861
0.1585832
0.1591137
0.1596131
0.1601096
0.1606234
0.1611665
0.1617433
0.162351
0.162981
0.1636207
0.1642544
0.1648649
0.1654332
0.1659383
0.1663547
0.1666513
0.1667952
0.1667889
0.1406169
0.141967
0.1440766
0.1464398
0.1487382
0.150804
0.1525769
0.1540534
0.1552561
0.1562226
0.1569984
0.1576316
0.1581693
0.1586546
0.1591244
0.1596078
0.1601251
0.1606873
0.1612966
0.1619474
0.1626278
0.1633217
0.16401
0.1646724
0.1652871
0.1658301
0.166273
0.166581
0.1667189
0.1666963
0.142271
0.1433839
0.1451558
0.1471868
0.1491994
0.1510289
0.1526017
0.1539041
0.154951
0.1557764
0.1564254
0.1569478
0.1573934
0.1578086
0.1582329
0.1586968
0.1592204
0.159813
0.1604735
0.1611916
0.1619502
0.1627275
0.1634992
0.1642404
0.1649258
0.1655281
0.1660164
0.1663535
0.1665041
0.166482
0.1439078
0.1448127
0.1462653
0.1479568
0.1496555
0.1512081
0.1525347
0.1536137
0.1544549
0.1550906
0.1555669
0.1559373
0.1562566
0.1565756
0.1569378
0.1573758
0.1579096
0.1585462
0.1592794
0.1600927
0.1609608
0.1618542
0.1627412
0.163591
0.1643734
0.1650581
0.1656118
0.1659964
0.1661763
0.1661676
0.1454125
0.1461494
0.147325
0.1486979
0.1500787
0.1513317
0.1523772
0.1531904
0.1537796
0.1541781
0.1544358
0.1546121
0.1547689
0.1549642
0.1552469
0.1556528
0.1562021
0.1568983
0.1577293
0.1586691
0.1596821
0.1607278
0.1617651
0.1627551
0.1636625
0.1644533
0.1650924
0.1655411
0.1657638
0.1657771
0.1467779
0.1473765
0.1483112
0.1493888
0.1504559
0.1513953
0.1521327
0.152644
0.1529392
0.1530556
0.1530496
0.1529891
0.1529461
0.1529882
0.1531724
0.1535393
0.1541101
0.1548845
0.1558417
0.1569435
0.1581401
0.1593771
0.1606012
0.1617644
0.1628247
0.1637447
0.1644876
0.1650147
0.1652908
0.1653321
0.1480245
0.1485034
0.1492221
0.1500232
0.1507827
0.1514002
0.1518096
0.1519898
0.1519554
0.1517496
0.1514369
0.1510968
0.1508143
0.1506709
0.1507348
0.1510544
0.151653
0.1525259
0.1536412
0.1549444
0.156367
0.1578362
0.1592844
0.1606526
0.161892
0.1629619
0.1638246
0.1644417
0.164779
0.1648524
0.1491593
0.1495322
0.1500551
0.1505973
0.1510586
0.1513533
0.1514236
0.1512535
0.1508633
0.1503024
0.1496455
0.1489864
0.1484278
0.1480672
0.147987
0.1482482
0.1488796
0.1498722
0.1511792
0.1527233
0.1544124
0.1561527
0.1578588
0.1594598
0.1609003
0.1621367
0.1631311
0.1638465
0.1642501
0.1643582
0.1501766
0.1504562
0.1508035
0.1511075
0.1512866
0.1512674
0.1509998
0.150474
0.1497152
0.1487795
0.1477534
0.146746
0.1458762
0.1452596
0.1449972
0.1451762
0.1458425
0.1469834
0.148527
0.1503587
0.1523547
0.1543975
0.1563857
0.1582381
0.1598933
0.1613054
0.1624378
0.1632552
0.1637272
0.1638708
0.151068
0.1512673
0.1514611
0.1515527
0.1514742
0.1511619
0.150573
0.1497031
0.1485816
0.1472711
0.1458678
0.1444907
0.1432683
0.1423333
0.141809
0.1418427
0.1425406
0.1438873
0.1457488
0.1479385
0.1502894
0.1526609
0.1549437
0.1570522
0.1589229
0.1605101
0.1617785
0.162696
0.1632345
0.1634124
0.1518286
0.1519612
0.1520261
0.1519363
0.1516336
0.151062
0.1501847
0.149002
0.147546
0.1458839
0.1441149
0.1423538
0.1407149
0.1393549
0.1385805
0.1385249
0.1392573
0.1407571
0.1429136
0.1455523
0.1483242
0.1510462
0.1536211
0.1559742
0.1580466
0.1597956
0.161189
0.1621978
0.1627968
0.1630056
0.1524588
0.152539
0.1525016
0.152266
0.1517807
0.1509956
0.1498788
0.1484338
0.1466948
0.1447294
0.1426302
0.1404844
0.1383996
0.1367543
0.1357864
0.1356501
0.1364136
0.1380511
0.1404412
0.1433785
0.1465889
0.1496663
0.1525102
0.1550767
0.1573208
0.159206
0.1607039
0.1617886
0.1624375
0.1626718
0.1529642
0.1530062
0.1528942
0.1525517
0.1519319
0.1509888
0.1496946
0.148055
0.1461051
0.1439103
0.1415483
0.1390465
0.1366945
0.1348388
0.1337305
0.1335338
0.1343196
0.1360581
0.1386169
0.141774
0.1452467
0.1486415
0.1516993
0.1544259
0.1567959
0.1587797
0.1603528
0.1614921
0.1621769
0.1624293
0.1533512
0.1533695
0.1532115
0.1528031
0.1521007
0.1510617
0.1496612
0.1479068
0.1458342
0.1435072
0.1409942
0.1382951
0.1357934
0.1338217
0.1326354
0.1324037
0.1331995
0.1349903
0.1376375
0.140909
0.1445087
0.148084
0.1512597
0.1540725
0.1565093
0.1585454
0.1601583
0.1613263
0.1620299
0.1622918
0.1536261
0.1536349
0.153459
0.1530259
0.1522944
0.1512244
0.1497931
0.1480097
0.1459108
0.1435608
0.1410282
0.1383127
0.1357976
0.1338153
0.1326208
0.1323829
0.1331742
0.1349622
0.1376076
0.1408784
0.1444779
0.1480535
0.1512297
0.1540433
0.1564811
0.1585181
0.1601318
0.1613005
0.1620046
0.1622667
0.1537917
0.1538044
0.1536377
0.15322
0.1525117
0.1514749
0.1500878
0.148361
0.1463324
0.1440688
0.1416482
0.1390975
0.1367058
0.1348184
0.1336856
0.1334706
0.1342434
0.1359733
0.1385271
0.1416819
0.1451543
0.1485499
0.1516095
0.1543385
0.1567112
0.1586978
0.1602735
0.1614148
0.1621011
0.1623542
0.1538458
0.153875
0.1537429
0.1533781
0.1527421
0.1517982
0.1505254
0.1489346
0.1470646
0.1449853
0.1427895
0.1405635
0.1384135
0.1367164
0.1357085
0.1355425
0.136285
0.1379087
0.1402909
0.1432247
0.1464347
0.1495137
0.1523609
0.1549314
0.1571802
0.15907
0.1605722
0.1616605
0.162312
0.1625475
0.1537802
0.1538377
0.1537635
0.1534858
0.1529659
0.1521677
0.15107
0.1496829
0.1480447
0.1462251
0.144323
0.1424521
0.1407243
0.139294
0.1384654
0.1383699
0.1390743
0.1405559
0.1427022
0.1453366
0.1481081
0.1508329
0.1534128
0.155772
0.1578512
0.159607
0.1610066
0.1620206
0.1626233
0.1628339
0.1535806
0.1536772
0.1536825
0.1535224
0.1531565
0.1525479
0.1516741
0.1505427
0.1491899
0.1476807
0.1461105
0.1445964
0.1432636
0.142242
0.1416515
0.1416365
0.1423005
0.1436257
0.1454752
0.1476601
0.1500116
0.1523876
0.1546775
0.1567947
0.1586745
0.1602708
0.1615474
0.1624717
0.1630152
0.1631957
0.1532276
0.1533741
0.1534793
0.1534644
0.1532845
0.1528997
0.152285
0.151444
0.1504086
0.149237
0.148014
0.1468457
0.1458469
0.1451297
0.1447908
0.1449142
0.1455424
0.1466593
0.1481901
0.1500177
0.1520159
0.1540655
0.1560634
0.1579271
0.1595941
0.1610177
0.1621603
0.1629863
0.1634645
0.1636114
0.1527007
0.1529084
0.1531337
0.1532893
0.1533219
0.1531861
0.1528524
0.1523193
0.1516132
0.1507846
0.1499057
0.149066
0.1483634
0.1478909
0.1477265
0.1479269
0.1485172
0.1494847
0.1507793
0.1523208
0.1540143
0.1557641
0.1574828
0.1590981
0.1605532
0.1618034
0.1628102
0.1635357
0.1639468
0.1640589
0.1519839
0.1522647
0.1526308
0.1529808
0.1532477
0.1533777
0.1533353
0.1531132
0.1527316
0.1522331
0.1516788
0.151143
0.1507053
0.1504419
0.1504161
0.1506717
0.1512278
0.1520758
0.15318
0.1544827
0.1559126
0.1573944
0.1588584
0.1602438
0.1615005
0.1625867
0.1634637
0.1640925
0.1644384
0.1645166
0.151071
0.1514382
0.1519661
0.1525328
0.1530521
0.1534575
0.1537063
0.1537866
0.1537123
0.1535187
0.1532576
0.1529912
0.1527854
0.1527023
0.1527937
0.1530952
0.1536236
0.1543742
0.1553224
0.1564265
0.1576335
0.1588864
0.1601294
0.1613129
0.1623932
0.1633317
0.1640908
0.1646311
0.1649169
0.1649635
0.1499717
0.1504395
0.1511507
0.1519544
0.152739
0.1534222
0.1539537
0.154318
0.1545245
0.154603
0.1545981
0.1545629
0.1545529
0.1546206
0.1548093
0.1551499
0.1556579
0.1563323
0.1571569
0.158102
0.1591286
0.1601934
0.1612527
0.1622659
0.1631958
0.1640073
0.1646644
0.1651276
0.1653609
0.16538
0.1487214
0.1493039
0.1502173
0.1512728
0.1523279
0.1532823
0.1540788
0.1547
0.1551534
0.1554659
0.1556772
0.1558343
0.1559858
0.1561768
0.1564454
0.1568193
0.1573136
0.1579307
0.1586604
0.1594819
0.1603668
0.1612822
0.1621942
0.1630697
0.1638768
0.1645842
0.1651574
0.1655577
0.165749
0.1657465
0.1473987
0.1481041
0.1492285
0.1505371
0.1518537
0.1530594
0.1540922
0.1549345
0.1555943
0.1560981
0.1564834
0.1567935
0.1570724
0.1573607
0.1576928
0.1580943
0.1585805
0.1591561
0.1598157
0.160545
0.1613231
0.1621251
0.1629242
0.1636933
0.1644053
0.1650318
0.1655408
0.1658946
0.1660572
0.1660417
0.1461405
0.146961
0.1482804
0.1498177
0.1513632
0.1527815
0.154008
0.155026
0.1558457
0.1564946
0.1570102
0.1574339
0.1578069
0.1581671
0.1585465
0.1589694
0.1594514
0.1599988
0.1606095
0.1612737
0.1619759
0.1626966
0.1634142
0.1641061
0.1647489
0.1653172
0.1657818
0.1661071
0.1662575
0.1662416
0.1451304
0.1460313
0.1474932
0.1491996
0.1509126
0.1524834
0.1538463
0.154985
0.1559123
0.1566576
0.157259
0.157757
0.1581916
0.1585989
0.1590096
0.1594471
0.1599271
0.1604571
0.1610369
0.1616595
0.1623129
0.1629808
0.1636452
0.1642864
0.1648837
0.1654148
0.1658535
0.1661678