/*--------------------------------*- C++ -*----------------------------------*\
| =========                 |                                                 |
| \\      /  F ield         | OpenFOAM: The Open Source CFD Toolbox           |
|  \\    /   O peration     | Version:  2506                                  |
|   \\  /    A nd           | Website:  www.openfoam.com                      |
|    \\/     M anipulation  |                                                 |
\*---------------------------------------------------------------------------*/
FoamFile
{
    version     2.0;
    format      ascii;
    arch        "LSB;label=32;scalar=64";
    class       volScalarField;
    location    "1000/air";
    object      qr;
}
// * * * * * * * * * * * * * * * * * * * * * * * * * * * * * * * * * * * * * //

dimensions      [1 0 -3 0 0 0 0];

internalField   uniform 0;

boundaryField
{
    maxY
    {
        type            calculated;
        value           uniform 0;
    }
    minX
    {
        type            calculated;
        value           uniform 0;
    }
    maxX
    {
        type            calculated;
        value           uniform 0;
    }
    minY
    {
        type            calculated;
        value           uniform 0;
    }
    maxZ
    {
        type            calculated;
        value           uniform 0;
    }
    air_to_solid
    {
        type            greyDiffusiveRadiationViewFactor;
        value           nonuniform List<scalar> 
1536
(
-6.765106
-7.325383
-7.470218
-7.522111
-7.554675
-7.457666
-7.191965
-7.945266
-8.095979
-8.153516
-8.194768
-8.104194
-7.286898
-8.043374
-8.196469
-8.256696
-8.300963
-8.213854
-7.292366
-8.049929
-8.204272
-8.26606
-8.312049
-8.227154
-7.273999
-8.033448
-8.188165
-8.250357
-8.297048
-8.212658
-7.11707
-7.87239
-8.026123
-8.087396
-8.132938
-8.04785
-8.741597
-6.257075
-115.787
-10.51055
-116.8125
-10.61053
-116.9375
-10.62041
-116.9489
-10.61239
-116.9189
-10.47558
-116.7367
-12.01209
-7.367931
-116.0375
-117.4368
-117.5645
-117.5768
-117.5492
-117.365
-13.92664
-7.450642
-116.157
-117.5574
-117.6864
-117.6995
-117.6722
-117.488
-14.08576
-7.454938
-116.1706
-117.5703
-117.6995
-117.7127
-117.6855
-117.5014
-14.13346
-7.446119
-116.1435
-117.5439
-117.6727
-117.6856
-117.6584
-117.4741
-14.13379
-7.309206
-115.961
-117.3567
-117.4836
-117.4957
-117.4678
-117.2839
-13.96858
-9.238668
-11.00287
-11.10267
-11.11228
-11.10391
-10.96659
-7.781413
-9.198056
-9.269455
-9.365325
-9.375687
-9.38654
-9.387729
-9.385019
-9.378147
-9.299016
-9.235643
-9.1506
-5.719861
-6.079252
-7.244321
-7.125246
-7.789835
-7.450145
-7.874797
-8.003873
-7.510775
-8.024772
-8.068708
-7.550721
-8.081491
-8.115521
-7.509201
-8.121607
-8.081612
-7.19957
-8.030187
-7.674227
-10.41667
-11.33923
-6.143681
-6.224805
-7.859792
-7.278446
-7.948855
-8.074906
-8.034736
-8.165841
-8.140492
-8.187383
-8.233482
-8.188379
-8.247055
-8.283719
-8.155541
-8.290734
-8.253487
-7.748693
-8.202834
-7.852967
-11.42356
-11.55376
-6.232212
-6.237142
-7.957464
-7.292871
-7.964075
-8.174784
-8.050066
-8.182219
-8.242989
-8.204197
-8.251668
-8.293807
-8.265712
-8.303831
-8.264265
-8.311359
-8.275922
-7.865945
-8.226058
-7.882239
-11.5742
-11.60849
-6.237025
-6.231398
-7.963877
-7.283418
-7.956086
-8.18223
-8.042339
-8.174968
-8.251955
-8.197084
-8.245062
-8.304448
-8.259305
-8.298142
-8.276918
-8.305933
-8.271256
-7.884124
-8.221566
-7.879016
-11.61487
-11.61848
-6.223754
-6.141832
-7.947105
-7.184713
-7.856933
-8.166064
-7.94313
-8.075264
-8.236123
-8.097216
-8.144749
-8.289251
-8.158842
-8.197294
-8.262397
-8.204955
-8.169919
-7.869663
-8.120046
-7.775659
-11.61036
-11.51544
-6.077067
-5.850182
-7.7866
-6.75794
-7.244237
-8.265114
-9.628103
-8.004222
-7.3267
-7.45608
-9.699311
-9.794446
-8.073412
-7.477839
-7.523951
-9.804527
-9.814435
-8.12543
-7.537302
-7.572493
-9.81528
-9.811423
-8.097621
-7.578816
-7.541017
-9.804129
-9.723569
-7.704342
-7.492224
-7.24311
-11.44213
-9.65966
-10.62656
-9.302578
-10.44139
-116.7333
-7.305796
-115.9617
-117.275
-10.60123
-116.924
-117.3574
-117.4706
-10.61941
-116.9497
-117.4843
-117.4969
-10.61858
-116.9329
-117.4963
-117.482
-10.53721
-116.8121
-117.4684
-117.3622
-10.01438
-116.8717
-117.2847
-13.84
-117.6544
-117.3538
-7.444083
-116.1437
-117.4605
-117.5507
-117.5441
-117.6588
-117.5773
-117.6729
-117.6861
-117.5627
-117.6858
-117.672
-117.4428
-117.6586
-117.5523
-117.7326
-117.4743
-14.06318
-117.8426
-117.4737
-7.454706
-116.1707
-117.4866
-117.6723
-117.5703
-117.6853
-117.6998
-117.6995
-117.713
-117.6857
-117.7127
-117.699
-117.5659
-117.6855
-117.5793
-117.8565
-117.5014
-14.1255
-117.8708
-117.4866
-7.452241
-116.1569
-117.4736
-117.6853
-117.5572
-117.6722
-117.713
-117.6863
-117.6997
-117.699
-117.6994
-117.6856
-117.5793
-117.6721
-117.5658
-117.8708
-117.4878
-14.14098
-117.8562
-117.4603
-7.371079
-116.037
-117.3533
-117.6587
-117.4363
-117.5502
-117.686
-117.564
-117.5768
-117.6719
-117.5764
-117.5623
-117.5521
-117.5487
-117.4423
-117.8422
-117.3644
-14.04139
-117.7318
-117.2743
-6.362997
-115.8765
-10.93371
-116.8736
-117.47
-116.9529
-11.09343
-117.0644
-117.4962
-117.0778
-11.11135
-117.0901
-117.4813
-117.0892
-11.11019
-117.0732
-117.3615
-117.0592
-11.02836
-116.9523
-117.6534
-116.877
-12.269
-10.31051
-116.9611
-7.232861
-6.980548
-6.905098
-7.775104
-5.483479
-7.917103
-5.69594
-7.667137
-7.382625
-7.608848
-8.208192
-8.258508
-7.772628
-7.48573
-7.756517
-8.324503
-8.332548
-7.822948
-7.53296
-7.811219
-8.345581
-8.348302
-7.846295
-7.552009
-7.84784
-8.344427
-8.332798
-7.67443
-7.37979
-7.754224
-8.209997
-8.125433
-9.195267
-9.091843
-7.591893
-7.547457
-7.235671
-5.999151
-6.041123
-8.050617
-8.004889
-7.9908
-8.159078
-8.112641
-8.14226
-8.213518
-8.166256
-8.200578
-8.242763
-8.194518
-8.24278
-8.071643
-8.022527
-8.153113
-9.380459
-9.436448
-7.648095
-7.643885
-7.290933
-6.08826
-6.091332
-8.10785
-8.103558
-8.047624
-8.218522
-8.213781
-8.201127
-8.275413
-8.270166
-8.261854
-8.307328
-8.301533
-8.306641
-8.140042
-8.133373
-8.22024
-9.517745
-9.529799
-7.648913
-7.650044
-7.291065
-6.091157
-6.08975
-8.109497
-8.110362
-8.049042
-8.221294
-8.221966
-8.20359
-8.279515
-8.27995
-8.2656
-8.312966
-8.313104
-8.311866
-8.14764
-8.147482
-8.227257
-9.549499
-9.552306
-7.615878
-7.632392
-7.25741
-6.073658
-6.057828
-8.077685
-8.094037
-8.017125
-8.189475
-8.205936
-8.171759
-8.247858
-8.264399
-8.233858
-8.281712
-8.298292
-8.2805
-8.116077
-8.132882
-8.19598
-9.541153
-9.524213
-7.374156
-7.474034
-7.021226
-5.920826
-5.826281
-7.827459
-7.932658
-7.767561
-7.938321
-8.043695
-7.920793
-7.99531
-8.101169
-7.981717
-8.02714
-8.133899
-8.02641
-7.862173
-7.968107
-7.94116
-9.374133
-9.275289
-7.925438
-7.924313
-8.230835
-8.283992
-8.359294
-8.370722
-8.394753
-8.401437
-8.410337
-8.403275
-8.295081
-8.216773
-116.5656
-116.3708
-9.984553
-115.7384
-6.982746
-117.1196
-116.8665
-10.55614
-117.0654
-117.198
-116.9449
-10.61536
-117.1906
-117.1997
-116.9463
-10.62106
-117.2022
-117.1518
-116.8972
-10.59979
-117.1731
-116.8983
-116.6433
-10.39158
-116.9905
-116.95
-116.8988
-116.0887
-7.407479
-117.5445
-117.4922
-117.489
-117.6247
-117.572
-117.6171
-117.6277
-117.5748
-117.6297
-117.5814
-117.5283
-117.6023
-117.3246
-117.2718
-117.418
-117.0253
-117.018
-116.1646
-7.453364
-117.6204
-117.6132
-117.5646
-117.7014
-117.6941
-117.6937
-117.7049
-117.6976
-117.7068
-117.6588
-117.6514
-117.6796
-117.4023
-117.3947
-117.4954
-117.0294
-117.0312
-116.1688
-7.45507
-117.6244
-117.6261
-117.5686
-117.7055
-117.7072
-117.6978
-117.7091
-117.7108
-117.711
-117.6629
-117.6646
-117.6838
-117.4065
-117.4083
-117.4996
-116.9836
-117.0045
-116.1223
-7.433653
-117.5787
-117.5996
-117.523
-117.6592
-117.6804
-117.6516
-117.6624
-117.6837
-117.6644
-117.6162
-117.6375
-117.6371
-117.3592
-117.3807
-117.4526
-116.7161
-116.821
-115.8591
-7.213587
-117.3007
-117.4118
-117.2461
-117.3795
-117.491
-117.3721
-117.3816
-117.4935
-117.3839
-117.3343
-117.4468
-117.3554
-117.0799
-117.1911
-117.1721
-8.133885
-8.031538
-7.743307
-8.791049
-8.654477
-9.048413
-9.082589
-8.932922
-8.311764
-8.291261
-9.120347
-9.317112
-9.168412
-9.217203
-9.347306
-9.198923
-8.342196
-8.338045
-9.227748
-9.381411
-9.233634
-9.239006
-9.384626
-9.236983
-8.349215
-8.349847
-9.240272
-9.388309
-9.240891
-9.2376
-9.38774
-9.240335
-8.271315
-8.310101
-9.230703
-9.364506
-9.216972
-9.15117
-9.33981
-9.192146
-8.202778
-8.055625
-9.087604
-9.161417
-9.014143
-9.042495
-9.192592
-8.995579
-5.93426
-5.839287
-5.697531
-5.858161
-5.759209
-5.972357
-5.986871
-5.880305
-7.409541
-7.132986
-7.52597
-7.38
-7.030262
-7.479341
-7.566595
-7.686061
-7.668776
-7.707611
-7.422438
-7.735904
-7.829093
-7.770173
-7.934177
-7.8699
-7.898434
-7.97521
-7.786396
-7.498846
-7.799064
-7.935573
-7.919239
-8.041245
-7.949603
-7.962606
-8.055482
-7.833796
-7.542826
-7.842735
-7.987276
-7.975129
-8.093951
-7.998613
-8.008125
-8.105649
-7.833932
-7.538519
-7.805454
-8.012852
-8.013821
-8.121033
-8.001025
-7.9729
-8.109554
-7.563124
-7.281881
-7.422924
-7.840505
-7.921557
-7.948569
-7.724611
-7.569244
-7.831478
-9.300077
-9.193049
-10.25457
-11.01901
-10.4206
-10.65534
-11.2216
-10.54494
-6.080969
-6.066705
-6.036815
-6.185291
-6.078408
-6.117709
-6.210636
-6.103675
-7.782839
-7.737945
-7.905074
-7.61937
-7.262802
-7.635275
-7.810464
-7.932854
-7.826414
-8.091995
-8.046095
-8.120999
-8.078649
-8.018689
-8.094822
-8.120203
-8.149398
-8.136531
-8.173679
-8.127073
-8.187323
-8.187777
-8.170808
-8.204523
-8.202567
-8.216427
-8.219499
-8.225704
-8.17823
-8.236124
-8.242956
-8.229848
-8.260342
-8.255348
-8.266003
-8.272926
-8.231768
-8.183303
-8.204249
-8.273019
-8.272844
-8.291103
-8.262251
-8.234991
-8.280551
-7.954889
-7.905408
-7.799145
-8.102919
-8.184082
-8.122004
-7.986721
-7.832173
-8.006376
-9.500308
-9.474681
-10.73839
-11.48324
-10.79686
-10.86514
-11.52492
-10.83738
-6.091983
-6.092222
-6.124901
-6.235541
-6.127978
-6.128963
-6.236831
-6.12898
-7.839227
-7.835017
-7.961683
-7.64989
-7.29257
-7.650371
-7.84104
-7.963514
-7.841572
-8.149736
-8.145374
-8.179284
-8.109755
-8.049479
-8.110424
-8.151738
-8.18141
-8.152508
-8.233722
-8.228897
-8.247975
-8.220811
-8.203338
-8.221777
-8.236125
-8.250527
-8.237222
-8.288231
-8.282896
-8.299309
-8.278139
-8.264496
-8.279466
-8.291077
-8.30231
-8.29254
-8.297074
-8.291156
-8.270397
-8.310532
-8.309743
-8.312267
-8.300429
-8.273947
-8.30231
-8.025363
-8.018265
-7.873953
-8.143972
-8.223953
-8.146239
-8.029666
-7.87904
-8.03223
-9.544892
-9.538507
-10.88455
-11.58894
-10.89838
-10.91645
-11.60002
-10.90867
-6.082541
-6.087228
-6.12847
-6.236481
-6.127505
-6.121484
-6.234959
-6.125527
-7.84029
-7.841324
-7.962916
-7.646466
-7.288431
-7.641623
-7.837974
-7.960687
-7.833278
-8.15164
-8.15249
-8.181455
-8.107357
-8.046871
-8.102888
-8.149544
-8.179412
-8.145124
-8.236809
-8.237475
-8.251381
-8.219263
-8.201555
-8.214824
-8.234822
-8.249468
-8.230439
-8.292693
-8.293107
-8.304143
-8.277649
-8.263712
-8.273288
-8.290892
-8.302433
-8.286605
-8.303141
-8.303242
-8.276918
-8.311333
-8.310199
-8.307113
-8.30158
-8.275436
-8.29742
-8.033888
-8.03365
-7.88468
-8.14615
-8.225782
-8.141865
-8.032409
-7.883339
-8.028062
-9.549708
-9.552736
-10.92226
-11.61913
-10.92606
-10.92483
-11.6207
-10.92728
-5.987217
-6.030709
-6.113335
-6.20934
-6.098355
-6.029609
-6.183733
-6.072146
-7.807788
-7.824206
-7.930733
-7.587792
-7.229343
-7.542754
-7.779695
-7.902582
-7.734336
-8.11985
-8.136251
-8.149649
-8.04944
-7.988944
-8.003533
-8.091556
-8.121318
-8.045586
-8.205007
-8.221532
-8.219596
-8.161005
-8.143358
-8.114819
-8.176499
-8.191066
-8.130279
-8.261133
-8.277726
-8.272669
-8.219197
-8.205266
-8.172703
-8.232442
-8.24396
-8.185895
-8.271976
-8.288605
-8.24575
-8.252886
-8.251736
-8.206025
-8.243127
-8.216885
-8.196225
-8.001875
-8.018902
-7.852401
-8.087026
-8.167045
-8.040025
-7.972626
-7.822811
-7.925596
-9.446643
-9.494446
-10.91662
-11.59361
-10.89984
-10.82189
-11.5637
-10.87001
-5.558122
-5.698598
-5.964193
-5.98651
-5.873551
-5.822645
-5.878656
-5.7744
-7.56213
-7.664703
-7.682529
-7.227064
-6.895723
-6.977225
-7.405305
-7.522812
-7.131497
-8.153813
-8.048101
-8.220903
-9.306099
-8.916675
-9.137662
-9.52712
-9.036867
-7.86929
-7.974616
-7.898872
-7.666157
-7.606749
-7.385413
-7.707805
-7.737313
-7.426764
-8.343316
-8.319713
-9.210335
-9.746746
-9.259165
-9.309582
-9.776693
-9.290472
-7.953601
-8.059059
-7.967851
-7.776672
-7.759205
-7.495123
-7.791861
-7.805993
-7.51009
-8.387558
-8.379743
-9.320995
-9.809951
-9.327788
-9.335087
-9.81285
-9.332082
-8.008135
-8.114211
-8.01912
-7.833037
-7.819685
-7.550259
-7.845576
-7.856255
-7.562319
-8.410716
-8.407092
-9.337372
-9.815495
-9.339047
-9.337973
-9.814544
-9.339584
-8.017045
-8.123986
-7.990653
-7.86354
-7.863177
-7.578619
-7.853154
-7.826709
-7.567687
-8.351376
-8.385295
-9.332234
-9.790041
-9.319691
-9.256344
-9.764868
-9.296081
-7.749547
-7.854012
-7.602493
-7.700097
-7.77759
-7.417256
-7.592042
-7.460184
-7.322668
-9.331043
-8.358117
-9.187495
-8.161814
-10.74883
-11.33676
-10.64935
-9.19404
-9.567523
-9.110045
-10.45681
-9.20619
-11.1595
-9.439682
-10.54724
-9.046629
-116.859
-116.6136
-10.32393
-116.9849
-116.7146
-115.8583
-7.207855
-116.8218
-117.0323
-117.1625
-117.1431
-117.1552
-116.902
-10.58465
-117.1772
-117.2988
-117.2442
-117.4124
-117.3347
-117.3566
-117.4486
-117.2017
-116.9486
-10.61793
-117.2029
-117.3775
-117.3702
-117.4917
-117.3813
-117.3826
-117.4955
-117.1949
-116.9412
-10.62077
-117.1869
-117.3797
-117.3819
-117.4942
-117.375
-117.3672
-117.4896
-117.1178
-116.8632
-10.57636
-117.0668
-117.3324
-117.3535
-117.4474
-117.2985
-117.2473
-117.4135
-116.8816
-116.5991
-10.28555
-117.352
-13.36458
-117.0782
-117.1703
-117.192
-117.0701
-117.5426
-13.70741
-117.1833
-117.2727
-117.2212
-117.4056
-116.9838
-116.1226
-7.431208
-117.0047
-117.3067
-117.4397
-117.3275
-117.581
-117.5285
-117.6033
-117.5789
-117.5232
-117.5998
-117.6155
-117.6379
-117.6365
-117.6287
-117.5759
-117.6301
-117.6594
-117.6518
-117.6805
-117.6635
-117.665
-117.6846
-117.6233
-117.5703
-117.6158
-117.6627
-117.6646
-117.6839
-117.6583
-117.6508
-117.6795
-117.5475
-117.4943
-117.496
-117.6164
-117.6373
-117.6377
-117.5824
-117.531
-117.6037
-117.3152
-117.2624
-117.7855
-13.98841
-117.3596
-117.4529
-117.381
-117.3501
-117.8206
-14.03227
-117.3717
-117.348
-117.3407
-117.4809
-117.0295
-116.1689
-7.454377
-117.0312
-117.3521
-117.485
-117.3537
-117.6571
-117.6499
-117.6796
-117.6244
-117.5687
-117.6261
-117.6612
-117.6837
-117.6629
-117.7056
-117.6982
-117.7071
-117.7056
-117.6979
-117.7072
-117.7098
-117.7113
-117.7114
-117.7006
-117.6932
-117.6932
-117.7092
-117.711
-117.7108
-117.7048
-117.6974
-117.7064
-117.6248
-117.6174
-117.5734
-117.663
-117.6838
-117.6646
-117.629
-117.5776
-117.6307
-117.3933
-117.3856
-117.8645
-14.10243
-117.4066
-117.4997
-117.4083
-117.3977
-117.8689
-14.11535
-117.3994
-117.352
-117.3537
-117.4849
-117.0252
-116.1646
-7.454517
-117.0178
-117.3479
-117.4809
-117.3406
-117.6612
-117.6629
-117.6837
-117.6203
-117.5645
-117.613
-117.6571
-117.6795
-117.6498
-117.7097
-117.7114
-117.7113
-117.7013
-117.6936
-117.694
-117.7055
-117.7071
-117.6981
-117.7047
-117.7064
-117.6973
-117.7049
-117.7068
-117.6975
-117.7005
-117.6931
-117.6931
-117.6289
-117.6306
-117.5775
-117.6587
-117.6795
-117.6513
-117.6247
-117.5733
-117.6173
-117.3976
-117.3994
-117.8688
-14.13918
-117.4022
-117.4953
-117.3945
-117.3931
-117.8643
-14.14204
-117.3853
-117.3064
-117.3273
-117.4395
-116.9496
-116.0883
-7.410303
-116.8982
-117.2723
-117.4053
-117.2207
-117.6153
-117.6363
-117.6376
-117.5442
-117.4886
-117.4917
-117.5807
-117.603
-117.528
-117.6632
-117.6844
-117.6648
-117.6244
-117.6168
-117.5715
-117.6283
-117.6298
-117.5754
-117.658
-117.6793
-117.6506
-117.6274
-117.6294
-117.5743
-117.623
-117.6155
-117.5698
-117.5822
-117.6036
-117.5307
-117.5811
-117.602
-117.5278
-117.5471
-117.4956
-117.4938
-117.3497
-117.3714
-117.8201
-14.11798
-117.3242
-117.4176
-117.2711
-117.3146
-117.7849
-14.08886
-117.2617
-117.0341
-117.1424
-117.1644
-116.5899
-115.7555
-7.007668
-116.5049
-10.47991
-116.8864
-117.0126
-116.7534
-10.81661
-117.3366
-117.4479
-117.3585
-117.1473
-117.0931
-117.0068
-11.04843
-117.183
-117.2049
-117.0424
-11.0769
-117.3832
-117.4949
-117.3845
-117.2257
-117.2184
-117.0852
-11.10744
-117.2295
-117.2306
-117.0889
-11.10994
-117.3769
-117.489
-117.3691
-117.2275
-117.2299
-117.0866
-11.11284
-117.2226
-117.2146
-117.0816
-11.11247
-117.3004
-117.4128
-117.2492
-117.1795
-117.2008
-117.0376
-11.0912
-117.1455
-117.0944
-117.0035
-11.06765
-117.0714
-117.1824
-117.5432
-13.85247
-116.9256
-117.0181
-116.783
-10.8821
-116.9057
-117.3689
-13.54833
-116.7332
-10.77291
)
;
        qro             uniform 0;
    }
    air_to_floor
    {
        type            greyDiffusiveRadiationViewFactor;
        value           nonuniform List<scalar> 
900
(
53.38921
56.97028
60.21545
63.13315
65.73325
68.0273
70.02881
71.75223
73.23942
74.48388
75.47644
76.2416
76.82072
77.21178
77.40013
77.37234
77.13759
76.70083
76.0522
75.18758
74.08549
72.73013
71.11844
69.24918
67.103
64.66752
61.93111
58.88345
55.51547
51.81925
57.07191
60.58931
63.76605
66.61242
69.14031
71.36315
73.29598
74.95456
76.3811
77.57111
78.51841
79.2479
79.79827
80.16867
80.34496
80.31658
80.09245
79.67458
79.05194
78.21937
77.15821
75.85291
74.29684
72.48631
70.40299
68.03331
65.36407
62.38308
59.07937
55.44306
60.42333
63.87276
66.97717
69.74878
72.2014
74.35033
76.21215
77.80375
79.16794
80.30176
81.2023
81.89486
82.41538
82.76462
82.92905
82.90044
82.68631
82.28773
81.69199
80.89266
79.8737
78.61988
77.12108
75.37118
73.35303
71.05186
68.45291
65.54218
62.30681
58.73504
63.45163
66.83058
69.86066
72.55592
74.932
77.00601
78.79602
80.32046
81.62142
82.69871
83.5521
84.20713
84.69753
85.02557
85.17823
85.14944
84.94508
84.56576
83.99708
83.23144
82.25495
81.05279
79.61178
77.9228
75.97056
73.73894
71.21164
68.37291
65.20809
61.70355
66.16602
69.47398
72.42962
75.04876
77.34882
79.34857
81.06755
82.52589
83.76428
84.78588
85.59268
86.21046
86.67113
86.97836
87.11994
87.09056
86.89568
86.53509
85.99299
85.26064
84.32593
83.17446
81.79034
80.1613
78.2742
76.11151
73.65549
70.88871
67.79475
64.35821
68.57705
71.81538
74.69834
77.24341
79.46964
81.39742
83.04775
84.44215
85.62002
86.5879
87.34963
87.93124
88.36316
88.65037
88.78155
88.7512
88.56552
88.22272
87.70613
87.00591
86.11136
85.00856
83.67908
82.10783
80.28362
78.18772
75.80093
73.10428
70.07967
66.71001
70.69675
73.86839
76.682
79.15656
81.31268
83.17226
84.75764
86.09145
87.2124
88.12928
88.84858
89.39562
89.80034
90.06858
90.19007
90.15853
89.98152
89.65539
89.16274
88.4927
87.63595
86.57886
85.30061
83.78379
82.01894
79.98624
77.66524
75.03543
72.07715
68.77175
72.53783
75.64697
78.39578
80.8049
82.89615
84.6926
86.21784
87.49559
88.56412
89.4337
90.11371
90.62871
91.00832
91.25921
91.37139
91.33865
91.16959
90.85878
90.38804
89.74565
88.92361
87.90844
86.6772
85.21046
83.50037
81.52603
79.26582
76.69813
73.80206
70.55713
74.12959
77.18001
79.86814
82.21561
84.24566
85.9827
87.45163
88.677
89.69685
90.52231
91.16571
91.65085
92.00713
92.24219
92.34546
92.3116
92.14988
91.85342
91.40311
90.78654
89.9969
89.02062
87.83315
86.41328
84.7547
82.83565
80.63314
78.12418
75.28638
72.09831
75.46922
78.46692
81.10054
83.39294
85.36846
87.05261
88.47119
89.64962
90.62588
91.41204
92.02259
92.4811
92.81655
93.03764
93.13271
93.09793
92.94252
92.65896
92.2268
91.63313
90.87237
89.93077
88.78258
87.40468
85.79207
83.92205
81.77084
79.31435
76.52902
73.3921
76.55343
79.5078
82.09639
84.34311
86.27327
87.91328
89.28989
90.42917
91.36883
92.12199
92.70467
93.14063
93.45856
93.66768
93.7558
93.72021
93.56984
93.29711
92.88024
92.3059
91.56925
90.65643
89.54063
88.19738
86.62273
84.79336
82.68463
80.2715
77.52942
74.43461
110.8484
80.32076
82.87393
85.08432
86.9782
88.58275
89.92537
91.03294
91.94289
92.6697
93.22932
93.64705
93.95092
94.15012
94.23268
94.19659
94.05041
93.78634
93.38177
92.82277
92.10508
91.21549
90.12568
88.81056
87.26646
85.46964
83.39478
81.01607
78.30806
75.246
78.03225
80.93057
83.45542
85.63672
87.50168
89.07808
90.3939
91.47651
92.36309
93.06918
93.61073
94.01419
94.30744
94.49872
94.57678
94.54014
94.3971
94.13979
93.7452
93.19841
92.49568
91.62453
90.55581
89.26864
87.74951
85.97868
83.93096
81.57996
78.89906
75.85822
111.7651
81.33328
83.84307
86.00401
87.84866
89.40542
90.70252
91.7678
92.63823
93.33009
93.85914
94.25248
94.53816
94.72381
94.79866
94.76168
94.62081
94.36821
93.98069
93.44254
92.75046
91.89262
90.84418
89.72668
52.75738
51.00517
48.97659
46.64502
43.9786
40.80945
111.9767
81.53889
84.03817
86.18819
88.02231
89.56898
90.85653
91.91274
92.77452
93.45882
93.9814
94.36934
94.65107
94.83384
94.90706
94.86988
94.73011
94.47993
94.09605
93.56229
92.87579
92.02495
90.98473
89.88143
52.92179
51.17919
49.1607
46.83994
44.18957
41.17927
111.9757
81.53814
84.03752
86.18763
88.02179
89.56846
90.85599
91.91218
92.77394
93.45822
93.98077
94.3687
94.65039
94.83312
94.90629
94.86905
94.72922
94.479
94.09507
93.5612
92.87466
92.02377
90.98356
89.88054
52.92093
51.17834
49.15985
46.83912
44.18931
41.18461
111.7573
81.33085
83.84121
86.00223
87.84694
89.40376
90.70092
91.76622
92.63662
93.32843
93.85738
94.25066
94.53621
94.72173
94.79644
94.75931
94.61828
94.36554
93.97787
93.43947
92.74724
91.88932
90.84139
89.73001
52.76142
51.00924
48.98069
46.64947
43.98901
40.97352
111.3337
80.92174
83.45201
85.6336
87.4986
89.07504
90.39088
91.47352
92.36011
93.0662
93.60752
94.01108
94.30415
94.49521
94.57305
94.53617
94.39289
94.13537
93.74051
93.19335
92.49037
91.61932
90.55692
89.42968
52.44402
50.67364
48.62598
46.27508
43.59488
40.56004
77.38955
80.31528
82.86882
85.07922
86.97307
88.5776
89.9202
91.02774
91.93767
92.66427
139.9442
93.64148
93.9454
94.1444
94.22671
94.19031
94.04381
93.77945
93.37448
92.81503
92.097
91.20747
90.12393
88.96872
51.95811
50.16177
48.08701
45.70844
43.00065
39.93909
76.54409
79.49844
82.08691
84.33349
86.26352
87.90339
89.27983
90.41896
91.35847
92.11148
92.69383
93.12981
93.44757
93.65646
93.74432
93.70843
93.55778
93.28476
92.86747
92.29268
91.55569
90.64266
89.52729
88.19019
86.61634
84.78714
82.67861
80.26576
77.524
74.42957
75.45511
78.45249
81.08578
83.37785
85.35306
87.03689
88.45515
89.63327
90.60925
91.39514
92.00543
92.46364
92.79881
93.01962
93.11439
93.0793
92.92363
92.63982
92.20734
91.61335
90.85232
89.91055
88.76228
87.38473
85.77231
83.90255
81.7517
79.29561
76.51053
73.37438
74.11047
77.16037
79.84797
82.19492
84.22444
85.96096
87.42936
88.65421
89.67358
90.49861
91.14159
91.62633
91.98227
92.21705
92.32002
92.28587
92.12391
91.82719
91.37663
90.75982
89.97004
88.99375
87.80635
86.3867
84.72844
82.80981
80.60778
78.09892
75.25689
72.07438
72.5126
75.62099
78.36904
80.77739
82.86785
84.66352
86.18799
87.46497
88.53281
89.40178
90.0812
90.59565
90.97482
91.22539
91.33724
91.30422
91.13499
90.82399
90.35313
89.71068
88.88865
87.87361
86.64262
85.17629
83.46675
81.49306
79.23335
76.66131
107.0813
70.52179
70.66373
73.8343
76.64682
79.1203
81.27532
83.13379
84.71808
86.05082
87.1708
88.08682
88.80531
89.35161
89.75576
90.02362
90.14478
90.11299
89.93586
89.60964
89.11703
88.44713
87.59062
86.5339
85.25617
83.74003
81.97601
79.94425
77.62425
74.99505
72.03305
68.73372
68.53624
71.7732
74.65477
77.19843
79.42325
81.34962
82.99855
84.39159
85.56824
86.53502
87.29574
87.87644
88.30767
88.59443
88.72529
88.69473
88.50896
88.16619
87.6498
86.94992
86.05583
84.95364
83.62491
82.05461
80.23151
78.13682
75.75135
73.05605
70.03266
66.66472
66.11755
69.42384
72.3778
74.99525
77.29359
79.29164
81.00894
82.46566
83.70259
84.72288
85.52848
86.14519
86.60507
86.91181
87.05306
87.02349
86.82857
86.46813
85.92637
85.19455
84.26052
83.10989
81.72674
80.09891
78.21317
76.05197
73.59752
70.83238
67.74012
64.30533
63.39573
66.77274
69.80086
72.49414
74.86824
76.94028
78.72836
80.25093
81.55023
82.62602
83.47804
84.13187
84.6214
84.94888
85.10122
85.07227
84.86791
84.48885
83.92065
83.1557
82.1801
80.97899
79.53916
77.85162
75.90098
73.67108
71.1456
68.30877
65.14589
61.64334
60.36031
63.80753
66.90972
69.6791
72.1295
74.27622
76.13588
77.72541
79.08776
80.21992
81.11895
81.81021
82.32976
82.67841
82.84252
82.81375
82.59969
82.20145
81.60632
80.80783
79.78993
78.53735
77.03992
75.29167
73.27534
70.97611
68.37921
65.4706
62.2374
58.66785
57.0021
60.51706
63.69136
66.53526
69.06072
71.28114
73.21163
74.86796
76.29252
77.48072
78.42638
79.15449
79.70384
80.07361
80.24956
80.22105
79.99704
79.57959
78.95766
78.12606
77.06611
75.76222
74.2077
72.39899
70.31768
67.95014
65.28315
62.30449
59.00316
55.36928
53.31303
56.89135
60.13401
63.04897
65.64652
67.93791
69.93693
71.65798
73.14306
74.38552
75.37641
76.14012
76.71818
77.10857
77.29658
77.26867
77.03409
76.59782
75.94998
75.08645
73.9857
72.63189
71.0219
69.15461
67.01059
64.57744
61.84346
58.7983
55.4329
51.7393
)
;
        qro             uniform 0;
    }
}


// ************************************************************************* //
