/*--------------------------------*- C++ -*----------------------------------*\
| =========                 |                                                 |
| \\      /  F ield         | OpenFOAM: The Open Source CFD Toolbox           |
|  \\    /   O peration     | Version:  2506                                  |
|   \\  /    A nd           | Website:  www.openfoam.com                      |
|    \\/     M anipulation  |                                                 |
\*---------------------------------------------------------------------------*/
FoamFile
{
    version     2.0;
    format      ascii;
    arch        "LSB;label=32;scalar=64";
    class       volVectorField;
    location    "1000/air";
    object      U;
}
// * * * * * * * * * * * * * * * * * * * * * * * * * * * * * * * * * * * * * //

dimensions      [0 1 -1 0 0 0 0];

internalField   nonuniform List<vector> 
33752
(
(-0.02715853 -0.03307984 -0.01987865)
(-0.01610827 -0.0418403 -0.01815131)
(-0.01034463 -0.04818199 -0.01726589)
(-0.0063612 -0.05260335 -0.01716928)
(-0.002771621 -0.05568178 -0.01749704)
(0.0008079894 -0.0579153 -0.01799849)
(0.004444926 -0.05957676 -0.01850257)
(0.008132463 -0.06082458 -0.01894129)
(0.01182029 -0.06174724 -0.01928857)
(0.01543363 -0.06241816 -0.01953389)
(0.01890788 -0.06290269 -0.01968009)
(0.02219335 -0.06326403 -0.01973976)
(0.02525556 -0.06356441 -0.01973019)
(0.02807853 -0.06386276 -0.01967165)
(0.03066299 -0.06421073 -0.01958489)
(0.03302558 -0.06464821 -0.01949015)
(0.0351956 -0.06519927 -0.01940583)
(0.03721215 -0.06586939 -0.01934822)
(0.03912066 -0.06664366 -0.01933118)
(0.04097027 -0.06748634 -0.01936672)
(0.0428121 -0.06834028 -0.01946559)
(0.0446997 -0.06912633 -0.01963905)
(0.04669201 -0.06973954 -0.01990061)
(0.04886086 -0.0700415 -0.02026958)
(0.05130608 -0.06984349 -0.02077611)
(0.05418789 -0.0688745 -0.02147034)
(0.05778368 -0.06671781 -0.02243518)
(0.06261481 -0.06272459 -0.0238225)
(0.07036625 -0.05601354 -0.02592775)
(0.08579773 -0.04551931 -0.02874452)
(-0.03635615 -0.02238956 -0.01799091)
(-0.02216031 -0.02801439 -0.01535022)
(-0.01443736 -0.03277069 -0.01401023)
(-0.009226869 -0.03622988 -0.01364562)
(-0.004828555 -0.03861763 -0.01377884)
(-0.0007066572 -0.04022471 -0.01413003)
(0.003356607 -0.0412738 -0.01451657)
(0.007353336 -0.04192336 -0.01485033)
(0.01129126 -0.04228568 -0.01511507)
(0.01509815 -0.04244433 -0.01529865)
(0.01871278 -0.04247162 -0.01540298)
(0.02208464 -0.04243422 -0.01543754)
(0.02518177 -0.04239422 -0.01541713)
(0.02799195 -0.04240769 -0.01535848)
(0.03052409 -0.04252109 -0.0152791)
(0.03280557 -0.04276706 -0.01519564)
(0.03487939 -0.04316068 -0.01512334)
(0.0367995 -0.04369693 -0.01507538)
(0.038627 -0.04434969 -0.01506304)
(0.04042657 -0.04507158 -0.01509601)
(0.04226522 -0.04579499 -0.01518356)
(0.04421373 -0.04643227 -0.01533587)
(0.0463528 -0.04687461 -0.01556679)
(0.04878533 -0.04698715 -0.01589742)
(0.05166087 -0.04660027 -0.01636368)
(0.0552236 -0.04549383 -0.01702893)
(0.05989099 -0.04337622 -0.01800374)
(0.06639326 -0.03987895 -0.01949645)
(0.07674084 -0.03466563 -0.02198538)
(0.09610283 -0.02807872 -0.02586362)
(-0.04304193 -0.01713455 -0.01669274)
(-0.02732886 -0.02071946 -0.01367923)
(-0.01822808 -0.02402782 -0.01196282)
(-0.01194511 -0.02651505 -0.0113421)
(-0.006750479 -0.02820127 -0.01128971)
(-0.002057858 -0.02924212 -0.01150735)
(0.00246382 -0.02979722 -0.01178777)
(0.006790332 -0.02999185 -0.01202416)
(0.01098239 -0.02993459 -0.01220409)
(0.01497441 -0.02970649 -0.01231563)
(0.01870657 -0.02938251 -0.01235854)
(0.02213203 -0.02903233 -0.01234219)
(0.02522181 -0.02872112 -0.01228046)
(0.02797121 -0.02850662 -0.01218993)
(0.03039968 -0.0284361 -0.01208724)
(0.03254989 -0.02854108 -0.01198828)
(0.03448265 -0.02883319 -0.01190688)
(0.03627167 -0.02930198 -0.01185467)
(0.03799782 -0.02991403 -0.01184096)
(0.03974504 -0.0306142 -0.01187367)
(0.04159833 -0.03132749 -0.01196034)
(0.04364667 -0.03196239 -0.01211045)
(0.0459912 -0.03241118 -0.01233822)
(0.0487613 -0.03254995 -0.0126678)
(0.05214346 -0.03223628 -0.01314167)
(0.05643502 -0.03130762 -0.01383651)
(0.0621215 -0.02958486 -0.01488579)
(0.06999408 -0.02690652 -0.01653732)
(0.0820687 -0.02325652 -0.01933348)
(0.1032802 -0.01921837 -0.02358565)
(-0.0476626 -0.01413253 -0.01597817)
(-0.03110424 -0.016403 -0.01278718)
(-0.0211135 -0.01856545 -0.01082236)
(-0.0140338 -0.02018226 -0.009997547)
(-0.00818213 -0.02119898 -0.009787434)
(-0.002981049 -0.0216945 -0.009883032)
(0.00194906 -0.02176873 -0.01006694)
(0.006582812 -0.02152782 -0.01021897)
(0.01100324 -0.02106459 -0.01032451)
(0.0151502 -0.02045604 -0.01037027)
(0.01896572 -0.01977751 -0.01035567)
(0.02240355 -0.01910351 -0.01028922)
(0.02543993 -0.01850502 -0.01018569)
(0.02807769 -0.01804543 -0.01006232)
(0.0303497 -0.01777748 -0.009936678)
(0.03231666 -0.01773583 -0.009824718)
(0.03406147 -0.01793211 -0.009740085)
(0.03568103 -0.01835268 -0.009693191)
(0.03727934 -0.01895876 -0.009691748)
(0.0389611 -0.01968782 -0.009741406)
(0.04082884 -0.0204581 -0.009847875)
(0.04298639 -0.02117494 -0.0100189)
(0.04554946 -0.02173348 -0.01026864)
(0.04866239 -0.02202152 -0.01062269)
(0.05252905 -0.02192389 -0.01112792)
(0.05746515 -0.02132762 -0.01186819)
(0.06396631 -0.02013644 -0.01298748)
(0.07279758 -0.0183107 -0.0147487)
(0.08588053 -0.01596783 -0.01771314)
(0.1079286 -0.01362374 -0.02206246)
(-0.0507653 -0.01205948 -0.01563532)
(-0.0336829 -0.01347017 -0.01234667)
(-0.02309439 -0.01477717 -0.01020414)
(-0.0154266 -0.01567213 -0.009220249)
(-0.009054933 -0.01609405 -0.008871091)
(-0.003422842 -0.01608477 -0.008850937)
(0.001860036 -0.01570401 -0.008935965)
(0.00676532 -0.01504703 -0.009001745)
(0.01138319 -0.01418875 -0.009028198)
(0.0156557 -0.01320263 -0.009001301)
(0.01952033 -0.01216585 -0.00891905)
(0.02293083 -0.01115896 -0.008791031)
(0.02586658 -0.0102626 -0.008633425)
(0.02833969 -0.009549499 -0.00846642)
(0.03039706 -0.009080774 -0.008309759)
(0.03212178 -0.008895896 -0.008181351)
(0.03362261 -0.009007896 -0.008095175)
(0.03502404 -0.009401535 -0.008060985)
(0.03645617 -0.0100334 -0.008084132)
(0.03804646 -0.01083504 -0.008167382)
(0.03991284 -0.01171726 -0.00831295)
(0.04216999 -0.0125812 -0.008525766)
(0.04494089 -0.01332222 -0.008818179)
(0.04837364 -0.01383762 -0.009216077)
(0.05267176 -0.01403276 -0.009767879)
(0.05814522 -0.01383121 -0.01056069)
(0.06526795 -0.01318855 -0.01174093)
(0.07474781 -0.0121264 -0.01357395)
(0.08839803 -0.01079586 -0.01662275)
(0.110754 -0.009582199 -0.02097103)
(-0.05281811 -0.01047144 -0.015559)
(-0.03534063 -0.01131959 -0.0121901)
(-0.02430824 -0.01200666 -0.009916955)
(-0.016191 -0.01233596 -0.008799711)
(-0.009401595 -0.01226288 -0.008325927)
(-0.003410367 -0.01181711 -0.008192964)
(0.002185122 -0.01102882 -0.008174154)
(0.007322119 -0.009994462 -0.008143441)
(0.01211298 -0.008769641 -0.008079851)
(0.01648508 -0.00742737 -0.007965146)
(0.02037028 -0.006048641 -0.007797298)
(0.02371587 -0.004721726 -0.007587534)
(0.0265027 -0.003535505 -0.007355524)
(0.02875469 -0.002562256 -0.007121521)
(0.03053638 -0.001883421 -0.006914057)
(0.03195561 -0.001556657 -0.006758556)
(0.03315191 -0.001601977 -0.00667208)
(0.0342816 -0.00200297 -0.006663259)
(0.03550408 -0.002708373 -0.006733311)
(0.03696853 -0.003631714 -0.006876013)
(0.038807 -0.0046663 -0.007084599)
(0.04114467 -0.005716585 -0.007362054)
(0.0441046 -0.006679179 -0.007718444)
(0.04782729 -0.007457481 -0.008177754)
(0.05250317 -0.007971108 -0.008788421)
(0.0584214 -0.008165388 -0.009637696)
(0.06602116 -0.008024621 -0.0108712)
(0.07594826 -0.007594435 -0.01275121)
(0.08992453 -0.007017508 -0.01583699)
(0.1123533 -0.006554437 -0.02013966)
(-0.05414708 -0.009122348 -0.01564652)
(-0.03632088 -0.009597894 -0.01221132)
(-0.02492545 -0.009847838 -0.009829679)
(-0.01644065 -0.009754814 -0.00859895)
(-0.009305077 -0.009295551 -0.008009698)
(-0.003002349 -0.008499242 -0.007764891)
(0.002871735 -0.007374392 -0.007634513)
(0.008214006 -0.006016769 -0.007495825)
(0.01315879 -0.004474087 -0.007326107)
(0.01760955 -0.002817222 -0.007102265)
(0.02149375 -0.001113444 -0.006815571)
(0.02475119 0.0005396244 -0.006483264)
(0.02735252 0.002028867 -0.006136767)
(0.0293273 0.003238178 -0.005810409)
(0.03076717 0.004088376 -0.005538878)
(0.03181028 0.004526233 -0.005351138)
(0.03263081 0.004528958 -0.005266074)
(0.03342338 0.004113608 -0.005291601)
(0.03438044 0.003336924 -0.005424386)
(0.03567773 0.002281985 -0.005652949)
(0.03746961 0.001048638 -0.005962333)
(0.03987992 -0.0002348601 -0.00634353)
(0.04301763 -0.001454558 -0.006798315)
(0.04700522 -0.002510439 -0.007344463)
(0.05201293 -0.003330124 -0.008027933)
(0.05830673 -0.003882033 -0.008939161)
(0.06628537 -0.004165297 -0.010222)
(0.07653748 -0.004231818 -0.01213517)
(0.09071316 -0.004201814 -0.01523347)
(0.1131183 -0.00423915 -0.01947341)
(-0.05497666 -0.007881398 -0.01583065)
(-0.03681945 -0.008109628 -0.01233114)
(-0.02510118 -0.008060035 -0.009858812)
(-0.01629995 -0.007671167 -0.008526832)
(-0.008863173 -0.006935202 -0.007830112)
(-0.00226983 -0.005880242 -0.007470117)
(0.003835986 -0.00450926 -0.007218915)
(0.00938066 -0.002904016 -0.006962149)
(0.01446891 -0.001108522 -0.006664521)
(0.01899846 0.0008217171 -0.006294869)
(0.02286476 0.002779657 -0.005858788)
(0.02599924 0.004664914 -0.005381708)
(0.02837686 0.006367667 -0.004902916)
(0.03003389 0.007772826 -0.004467104)
(0.03107871 0.008778123 -0.004118186)
(0.03168258 0.009311753 -0.003891942)
(0.03206387 0.009343669 -0.003811478)
(0.03246165 0.008891377 -0.003883354)
(0.03310966 0.008017934 -0.004098118)
(0.03421137 0.006823843 -0.004434047)
(0.03592907 0.005431159 -0.0048655)
(0.03838455 0.003965254 -0.005371693)
(0.04167666 0.002541873 -0.005945344)
(0.04590855 0.001251792 -0.006599378)
(0.05122438 0.0001581987 -0.007376475)
(0.05785148 -0.0006978 -0.008362645)
(0.06614762 -0.001318993 -0.009699011)
(0.0766523 -0.00175522 -0.01164073)
(0.09096316 -0.002107668 -0.0147418)
(0.113311 -0.00247179 -0.01891558)
(-0.05546006 -0.006687692 -0.01604934)
(-0.03698826 -0.006751573 -0.01249332)
(-0.02497624 -0.006510439 -0.009943528)
(-0.01589059 -0.005936904 -0.008522842)
(-0.008185302 -0.005032456 -0.007726468)
(-0.001313811 -0.003817405 -0.007250021)
(0.005002138 -0.00229981 -0.006872629)
(0.01074621 -0.0005415499 -0.006482644)
(0.01598155 0.001416309 -0.006032298)
(0.02057725 0.003499246 -0.00550074)
(0.02442273 0.005629043 -0.004896617)
(0.0274279 0.007696424 -0.004250873)
(0.02955703 0.00957379 -0.00361214)
(0.03085435 0.01113015 -0.003040002)
(0.03145125 0.01224961 -0.002592369)
(0.03155912 0.01285001 -0.00231744)
(0.03144394 0.01289611 -0.002244342)
(0.03139606 0.01240539 -0.002378887)
(0.03169279 0.01144678 -0.002702443)
(0.03256865 0.01012972 -0.003178082)
(0.03419636 0.008587552 -0.003762671)
(0.03669198 0.006955918 -0.004420313)
(0.04013488 0.005356777 -0.005132784)
(0.04460085 0.003885125 -0.005908003)
(0.05019978 0.002604648 -0.006786662)
(0.05712572 0.001542779 -0.00785286)
(0.0656997 0.0006907766 -0.009245773)
(0.07641866 2.403383e-06 -0.01121882)
(0.09083547 -0.0005985994 -0.01432324)
(0.1131225 -0.001160234 -0.01843496)
(-0.05570554 -0.005522306 -0.0162623)
(-0.03694665 -0.005481505 -0.01265856)
(-0.02466648 -0.005133768 -0.01004461)
(-0.01532443 -0.00447258 -0.008547729)
(-0.007374672 -0.003501169 -0.007660805)
(-0.0002368542 -0.002228675 -0.007069914)
(0.006276285 -0.0006758762 -0.006563216)
(0.01222144 0.001120784 -0.00602861)
(0.01759827 0.003115865 -0.005418796)
(0.02226903 0.00525442 -0.004712295)
(0.02609552 0.007451724 -0.003917187)
(0.02896501 0.009594903 -0.00307159)
(0.0308312 0.01155066 -0.002239552)
(0.03174311 0.01317901 -0.001499486)
(0.03185846 0.01435624 -0.0009315069)
(0.03143068 0.01498912 -0.0005951888)
(0.0307802 0.01503703 -0.0005315697)
(0.03025173 0.01451721 -0.0007461358)
(0.03017141 0.01350312 -0.001206585)
(0.03080499 0.01211323 -0.001855917)
(0.03233599 0.01048804 -0.002629416)
(0.0348692 0.008768246 -0.003470203)
(0.03845987 0.007076882 -0.004346722)
(0.04315074 0.005508251 -0.005259878)
(0.04901756 0.004121615 -0.006248561)
(0.05622011 0.002941859 -0.007397266)
(0.06504584 0.001960296 -0.008846527)
(0.07595363 0.00113785 -0.01085013)
(0.09046205 0.0004095502 -0.01395845)
(0.1127012 -0.0002462308 -0.01801605)
(-0.05579085 -0.004385685 -0.01644629)
(-0.03678322 -0.00428497 -0.01280449)
(-0.02426736 -0.00389981 -0.01013929)
(-0.01469739 -0.003234716 -0.008578009)
(-0.006528903 -0.002291637 -0.007611667)
(0.0008605196 -0.001066436 -0.006911756)
(0.007562097 0.0004073168 -0.006277531)
(0.01369542 0.002114721 -0.005601745)
(0.01921688 0.004022935 -0.004831115)
(0.02396643 0.006078524 -0.003938145)
(0.02777852 0.008201983 -0.002932041)
(0.03051724 0.01028572 -0.00186145)
(0.03212135 0.01219893 -0.0008079611)
(0.03264685 0.01379764 0.0001254502)
(0.03227375 0.01494482 0.0008186543)
(0.03130177 0.01555846 0.00121864)
(0.03010632 0.01559863 0.001270183)
(0.02908765 0.01508126 0.0009671915)
(0.02861985 0.01407838 0.0003570793)
(0.02900963 0.01269884 -0.0004867399)
(0.03044678 0.01108691 -0.001477383)
(0.03301931 0.009386299 -0.002527747)
(0.03675414 0.007715237 -0.003588226)
(0.04166054 0.006161784 -0.004652758)
(0.04777889 0.004780592 -0.00575915)
(0.05523671 0.003592498 -0.00699407)
(0.06428996 0.00258894 -0.008500044)
(0.07536663 0.001735287 -0.01053328)
(0.08995867 0.0009800982 -0.01364551)
(0.1121675 0.000317995 -0.01765502)
(-0.0557677 -0.003279553 -0.01658576)
(-0.03656658 -0.00315585 -0.01291952)
(-0.02385514 -0.002790654 -0.01021446)
(-0.01409319 -0.002194085 -0.008601856)
(-0.005736747 -0.001365661 -0.007568193)
(0.001878306 -0.0002899571 -0.006770402)
(0.008748066 0.0009900761 -0.006020385)
(0.01505844 0.002485094 -0.00521579)
(0.02071711 0.004164249 -0.004289671)
(0.0255446 0.005982648 -0.003209745)
(0.02935055 0.007873297 -0.001987792)
(0.03197436 0.009740867 -0.0006832903)
(0.03333502 0.01145774 0.0005884578)
(0.03349197 0.01288801 0.001719126)
(0.03266015 0.01392022 0.002567877)
(0.03117522 0.01447195 0.003040478)
(0.02946429 0.01450195 0.003079512)
(0.02798484 0.0140233 0.002682072)
(0.02716046 0.01310272 0.001903821)
(0.02731591 0.01184877 0.0008451843)
(0.0286594 0.01038432 -0.0003631248)
(0.03127387 0.008836124 -0.001631897)
(0.03514524 0.007318913 -0.002883579)
(0.04024968 0.005909739 -0.004102738)
(0.04659569 0.004654939 -0.005327329)
(0.05428075 0.003571917 -0.006647203)
(0.06353485 0.002651947 -0.008208667)
(0.07476046 0.001866637 -0.01027084)
(0.08942857 0.001175924 -0.01338853)
(0.1116229 0.000582374 -0.01735753)
(-0.05569515 -0.002206228 -0.01668404)
(-0.03635197 -0.002088903 -0.01299776)
(-0.02349233 -0.001790333 -0.01026491)
(-0.01358124 -0.00132278 -0.008613369)
(-0.005074735 -0.0006831464 -0.007527696)
(0.00272777 0.0001520465 -0.00664994)
(0.009735846 0.001138568 -0.005806375)
(0.01619695 0.002299157 -0.004892225)
(0.0219747 0.003610289 -0.003829029)
(0.02687374 0.005038918 -0.002580479)
(0.03068145 0.006533008 -0.001160006)
(0.03321041 0.0080165 0.0003529485)
(0.03436217 0.009377328 0.001844517)
(0.03421098 0.01052001 0.003160948)
(0.03298455 0.011347 0.004149663)
(0.03105678 0.0117868 0.004691964)
(0.02890128 0.01180509 0.004720429)
(0.02702657 0.01141164 0.00423288)
(0.02589825 0.0106607 0.003297835)
(0.02586825 0.009641054 0.002041663)
(0.02713412 0.008460903 0.0006138841)
(0.0297816 0.007213115 -0.0008505752)
(0.03377255 0.005992305 -0.002279164)
(0.03904534 0.004858862 -0.00364147)
(0.04558197 0.003850527 -0.004973744)
(0.05345573 0.002980379 -0.006369956)
(0.06287522 0.0022411 -0.007980801)
(0.07422449 0.001610573 -0.01006931)
(0.08895987 0.001060826 -0.01319343)
(0.1111523 0.0005995868 -0.01713259)
(-0.05557543 -0.001161094 -0.01671672)
(-0.03617671 -0.001074354 -0.01303466)
(-0.02322697 -0.0008793623 -0.01028747)
(-0.01321777 -0.0005867882 -0.008611912)
(-0.004605599 -0.0001930621 -0.007490965)
(0.003330744 0.0003282375 -0.006559077)
(0.01043847 0.0009398654 -0.005650719)
(0.01701044 0.001666024 -0.004656713)
(0.02287764 0.002492969 -0.003490725)
(0.02783197 0.003399765 -0.002112128)
(0.03164628 0.004353707 -0.0005336689)
(0.03410388 0.005302449 0.001140825)
(0.03510874 0.006178928 0.002802931)
(0.03473193 0.006915809 0.00427008)
(0.03321539 0.007449032 0.005371357)
(0.03096065 0.007730185 0.005971887)
(0.02847804 0.007735841 0.005993496)
(0.02631316 0.00747214 0.005433538)
(0.02496413 0.006974569 0.004372391)
(0.02480113 0.006302585 0.002957595)
(0.02602262 0.005526258 0.001361919)
(0.02868996 0.004712783 -0.00025906)
(0.03277041 0.00391669 -0.001831294)
(0.03816615 0.003178425 -0.0033128)
(0.04484219 0.002522434 -0.00473309)
(0.05285293 0.00195756 -0.006188957)
(0.06239196 0.00147826 -0.007837595)
(0.07383158 0.001070677 -0.009946217)
(0.08862214 0.0007181795 -0.01307591)
(0.110831 0.0004290548 -0.01699493)
(-0.05547999 -0.0001366471 -0.01670767)
(-0.0360761 -9.816238e-05 -0.01303078)
(-0.02309296 -3.062646e-05 -0.01028146)
(-0.0130401 5.792605e-05 -0.008596918)
(-0.004372755 0.0001718067 -0.007460814)
(0.003632594 0.0003265802 -0.006506649)
(0.01079167 0.0005125453 -0.005566858)
(0.01742421 0.0007402523 -0.004531673)
(0.02334082 0.001006401 -0.003310634)
(0.02832662 0.001304738 -0.001859698)
(0.03214768 0.00162334 -0.0001879107)
(0.03456952 0.001943752 0.00157677)
(0.03549806 0.002242158 0.003333787)
(0.03500276 0.002493449 0.004888815)
(0.03333328 0.002673504 0.006057544)
(0.03090635 0.002764357 0.006693828)
(0.02825125 0.002756811 0.006712578)
(0.02593441 0.002652787 0.00611064)
(0.02447065 0.002465955 0.004975167)
(0.02423978 0.002218044 0.003467376)
(0.02544084 0.001935402 0.0017755)
(0.02812002 0.001642623 6.746926e-05)
(0.03225027 0.001358451 -0.00158887)
(0.03771162 0.001096327 -0.00313523)
(0.04446082 0.0008647856 -0.004602255)
(0.05254337 0.0006661926 -0.006090237)
(0.0621451 0.0004986099 -0.007759383)
(0.0736328 0.0003568955 -0.009879208)
(0.08845455 0.0002356578 -0.01301324)
(0.1106783 0.0001378574 -0.0169301)
(-0.05541176 0.0008701926 -0.01664509)
(-0.03606238 0.0008535785 -0.01298451)
(-0.02310628 0.0007835977 -0.01024704)
(-0.0130652 0.0006588381 -0.008570983)
(-0.004402511 0.0004833451 -0.007442909)
(0.003602203 0.0002533778 -0.006496167)
(0.01076649 -2.314082e-06 -0.005561912)
(0.01740369 -0.0002968559 -0.004529496)
(0.02332586 -0.0006231347 -0.003309805)
(0.02831716 -0.0009739511 -0.00185952)
(0.03214324 -0.001338195 -0.0001878133)
(0.03456933 -0.001699336 0.001576901)
(0.03550148 -0.00203499 0.003333934)
(0.03500901 -0.002321192 0.00488874)
(0.03334176 -0.002534672 0.006057242)
(0.03091648 -0.002657812 0.006693257)
(0.02826253 -0.002681271 0.006711885)
(0.02594649 -0.002606429 0.006109783)
(0.02448347 -0.002445978 0.004974097)
(0.02425333 -0.002220446 0.003466011)
(0.02545499 -0.001955702 0.001774011)
(0.02813468 -0.001676597 6.609626e-05)
(0.03226524 -0.001402839 -0.001589894)
(0.03772696 -0.001149164 -0.003135961)
(0.04447686 -0.000923931 -0.004602719)
(0.05256034 -0.0007294156 -0.006090596)
(0.06216322 -0.0005639668 -0.007759819)
(0.07365247 -0.0004225366 -0.009880046)
(0.08847642 -0.000299156 -0.01301485)
(0.110704 -0.000196223 -0.01693381)
(-0.05537221 0.001867218 -0.01653392)
(-0.03613777 0.001795521 -0.01290044)
(-0.02326698 0.001594865 -0.01018931)
(-0.01329259 0.001267106 -0.008538461)
(-0.004691963 0.0008152276 -0.007439483)
(0.003243392 0.0002259982 -0.006529191)
(0.01036471 -0.0004518787 -0.005636189)
(0.01695097 -0.001240748 -0.004650196)
(0.02283431 -0.002124221 -0.003488623)
(0.02780473 -0.003080815 -0.002112)
(0.03163334 -0.004078485 -0.0005341383)
(0.03410333 -0.00506686 0.00114059)
(0.03511854 -0.00597991 0.002802573)
(0.03475004 -0.006751158 0.004269415)
(0.0332399 -0.007317253 0.005370115)
(0.03098992 -0.007630064 0.0059702)
(0.0285107 -0.007665952 0.005991462)
(0.02634831 -0.007430384 0.005431098)
(0.02500154 -0.006957841 0.004369232)
(0.02484078 -0.006306887 0.002953722)
(0.0260643 -0.005547114 0.001357747)
(0.02873322 -0.004746162 -0.0002628545)
(0.03281437 -0.003959832 -0.001834182)
(0.03821114 -0.003230485 -0.003315632)
(0.04488947 -0.002581358 -0.004735841)
(0.05290322 -0.002020764 -0.006191623)
(0.06244575 -0.001543814 -0.007840664)
(0.07389021 -0.001136953 -0.009950409)
(0.08868903 -0.0007827941 -0.01308291)
(0.110918 -0.0004872914 -0.01701279)
(-0.05535352 0.002864678 -0.01638338)
(-0.03629135 0.0027471 -0.01278648)
(-0.02355815 0.00243686 -0.01011337)
(-0.01370155 0.001935572 -0.008502013)
(-0.005211139 0.001244786 -0.007449613)
(0.002591848 0.0003520547 -0.00660346)
(0.009622155 -0.000691747 -0.005783314)
(0.01610599 -0.00190609 -0.004881986)
(0.02190918 -0.00326633 -0.003825858)
(0.02683312 -0.004739223 -0.002580832)
(0.03066297 -0.006273038 -0.001160891)
(0.03321072 -0.007794193 0.000351661)
(0.03437864 -0.009190378 0.001843209)
(0.03424047 -0.01036671 0.003159206)
(0.03302414 -0.01122599 0.004147342)
(0.03110396 -0.01169681 0.004688956)
(0.02895411 -0.01174442 0.004716804)
(0.02708394 -0.01137774 0.004228355)
(0.02595984 -0.01065001 0.003292159)
(0.02593399 -0.009649212 0.002035067)
(0.02720352 -0.008483342 0.0006072308)
(0.02985349 -0.007245773 -0.0008563572)
(0.03384462 -0.006032304 -0.002283994)
(0.03911843 -0.00490502 -0.00365235)
(0.04565924 -0.00390134 -0.004989238)
(0.05353825 -0.003034317 -0.006386912)
(0.06296319 -0.00229732 -0.007998675)
(0.07431993 -0.001668852 -0.01008871)
(0.08906973 -0.001120944 -0.01321599)
(0.1112992 -0.0006601091 -0.01716619)
(-0.05534754 0.00386395 -0.01621348)
(-0.03649524 0.003724624 -0.01264912)
(-0.0239433 0.003340809 -0.01002432)
(-0.01424935 0.002713471 -0.008464052)
(-0.005911378 0.001843841 -0.007472827)
(0.001707702 0.0007243396 -0.006712613)
(0.008606145 -0.0006002328 -0.005991583)
(0.01494657 -0.002136445 -0.005203194)
(0.02063754 -0.003854473 -0.004286285)
(0.02549706 -0.005709829 -0.003210648)
(0.02933047 -0.00763583 -0.001986399)
(0.03197755 -0.009537207 -0.0006854262)
(0.03335895 -0.01128692 0.0005856336)
(0.03353286 -0.01274924 0.001715925)
(0.03271429 -0.01381265 0.002564056)
(0.03123955 -0.01439427 0.003035875)
(0.02953662 -0.01445214 0.00307383)
(0.02806401 -0.01399835 0.002675064)
(0.02724619 -0.01309869 0.001895422)
(0.02740799 -0.01186111 0.0008360913)
(0.02875724 -0.01040844 -0.0003716553)
(0.03137577 -0.008867843 -0.001638339)
(0.03524848 -0.007354672 -0.002887808)
(0.04035459 -0.005946155 -0.004111721)
(0.04670518 -0.004691226 -0.005340347)
(0.05439576 -0.003608756 -0.006661567)
(0.06365542 -0.002690485 -0.008224053)
(0.0748882 -0.001908842 -0.01028768)
(0.08956953 -0.001225499 -0.01340828)
(0.1117986 -0.0006459997 -0.0173868)
(-0.05528161 0.004877465 -0.01600591)
(-0.03669953 0.00474755 -0.01249259)
(-0.0243703 0.004337299 -0.009925146)
(-0.01487669 0.003644854 -0.00842721)
(-0.006726126 0.002672089 -0.00750887)
(0.0006706247 0.001419117 -0.006849646)
(0.007406969 -8.274606e-05 -0.006245712)
(0.01357572 -0.001817668 -0.005588545)
(0.01913374 -0.003752858 -0.004828118)
(0.02391823 -0.005836266 -0.003940641)
(0.02776171 -0.007989052 -0.002936477)
(0.03052754 -0.01010177 -0.001866944)
(0.03215507 -0.01204464 -0.0008135914)
(0.03269983 -0.01367348 0.0001198769)
(0.03234222 -0.01485038 0.0008129064)
(0.03138268 -0.01549252 0.001212006)
(0.03019755 -0.01555894 0.001262294)
(0.02918815 -0.01506452 0.000957828)
(0.02872934 -0.01408042 0.000346652)
(0.02912795 -0.01271515 -0.0004973916)
(0.030573 -0.01111321 -0.00148623)
(0.03315174 -0.009418694 -0.002533083)
(0.03689058 -0.007750235 -0.00358942)
(0.04180019 -0.006195853 -0.004651279)
(0.04792235 -0.00481295 -0.005756158)
(0.05538424 -0.003624269 -0.006990609)
(0.06444145 -0.002621929 -0.008496818)
(0.07552229 -0.001772555 -0.01053082)
(0.0901187 -0.001026787 -0.01364443)
(0.1123351 -0.0003827831 -0.01765676)
(-0.05513219 0.005919294 -0.01577528)
(-0.03685409 0.005832958 -0.01231964)
(-0.02477703 0.00545289 -0.009821394)
(-0.01551258 0.004768143 -0.008395103)
(-0.007577259 0.003778819 -0.007560059)
(-0.000426986 0.002494688 -0.0070097)
(0.006127117 0.0009291006 -0.006531751)
(0.0121084 -0.0008793452 -0.006015538)
(0.01752325 -0.002887962 -0.005416089)
(0.02222983 -0.00504387 -0.004715008)
(0.02608828 -0.007262261 -0.003922661)
(0.02898596 -0.009429383 -0.003078214)
(0.03087637 -0.0114115 -0.002246638)
(0.03180877 -0.01306765 -0.001506751)
(0.03194111 -0.01427291 -0.0009392755)
(0.03152761 -0.01493282 -0.000603834)
(0.03088962 -0.01500547 -0.0005414155)
(0.0303728 -0.01450699 -0.0007570089)
(0.03030385 -0.01351022 -0.001217799)
(0.03094831 -0.01213351 -0.001865973)
(0.03248905 -0.01051767 -0.002636471)
(0.03503009 -0.008803843 -0.003472866)
(0.03862644 -0.007115571 -0.004344811)
(0.04332156 -0.005547489 -0.005254421)
(0.0491921 -0.004160328 -0.006241077)
(0.05639787 -0.002980262 -0.007388887)
(0.065226 -0.001999627 -0.008837905)
(0.07613522 -0.001180923 -0.01084135)
(0.09064279 -0.0004609624 -0.01394957)
(0.1128803 0.0001809634 -0.01800653)
(-0.05485064 0.006983329 -0.01553021)
(-0.03689271 0.006987939 -0.01214134)
(-0.02508704 0.00670934 -0.009721248)
(-0.01607365 0.00611807 -0.008378469)
(-0.008375937 0.005208511 -0.007634249)
(-0.001486944 0.003997057 -0.007196602)
(0.004873547 0.002481966 -0.006844143)
(0.01065393 0.0007283656 -0.006469746)
(0.01592714 -0.001231667 -0.006028497)
(0.02055622 -0.003321404 -0.00550195)
(0.02443194 -0.005463972 -0.004900484)
(0.02746355 -0.007549348 -0.004256299)
(0.02961596 -0.009448936 -0.003618354)
(0.03093344 -0.01103028 -0.003046874)
(0.03154792 -0.01217582 -0.002599877)
(0.03167134 -0.01280175 -0.00232584)
(0.03157046 -0.01287131 -0.002253571)
(0.03153629 -0.01240093 -0.002388558)
(0.03184629 -0.01145901 -0.002711449)
(0.03273467 -0.010155 -0.003184914)
(0.03437347 -0.008622542 -0.003765817)
(0.0368782 -0.006997602 -0.004419022)
(0.04032806 -0.005402377 -0.005127369)
(0.04479926 -0.003932293 -0.005899649)
(0.0504023 -0.002651928 -0.006776666)
(0.05733135 -0.001589818 -0.007842124)
(0.06590668 -0.0007387182 -0.009234516)
(0.07662476 -5.301911e-05 -0.0112066)
(0.09103704 0.000542129 -0.01430893)
(0.1133164 0.001091972 -0.01841826)
(-0.05436246 0.008065641 -0.01529645)
(-0.03672404 0.008227011 -0.01197963)
(-0.02520234 0.008141313 -0.009648558)
(-0.01646143 0.00774371 -0.008397529)
(-0.009024667 0.007016742 -0.007751976)
(-0.002408337 0.005979639 -0.007425936)
(0.003741543 0.004625293 -0.007195517)
(0.00932316 0.003036416 -0.006949009)
(0.01444424 0.001252105 -0.006657983)
(0.01900407 -0.0006755723 -0.006291915)
(0.0228966 -0.002639948 -0.005858286)
(0.026054 -0.004537636 -0.005382716)
(0.02845205 -0.006258332 -0.004905121)
(0.03012765 -0.007685139 -0.004470287)
(0.03118948 -0.008714203 -0.004122335)
(0.03180936 -0.009271803 -0.003896862)
(0.03220609 -0.009326287 -0.003816917)
(0.03261896 -0.008894001 -0.003888556)
(0.03328165 -0.008037422 -0.004102039)
(0.034397 -0.006856782 -0.004435391)
(0.03612681 -0.005474707 -0.00486332)
(0.03859257 -0.004016255 -0.005365928)
(0.04189312 -0.002597471 -0.005936736)
(0.0461313 -0.001310258 -0.006589105)
(0.05145194 -0.0002169536 -0.007365328)
(0.0580823 0.0006397501 -0.008350824)
(0.06637966 0.001261402 -0.009686321)
(0.07688254 0.001696019 -0.01162584)
(0.09118463 0.00204361 -0.01471852)
(0.1135153 0.002399212 -0.01889011)
(-0.05355205 0.009172363 -0.01512006)
(-0.0362247 0.009587635 -0.01187599)
(-0.02500408 0.009813903 -0.009640222)
(-0.01656468 0.009727504 -0.00849039)
(-0.009421189 0.009292842 -0.007947431)
(-0.003090462 0.008526966 -0.007730709)
(0.002819817 0.007432831 -0.007615349)
(0.008198374 0.006100886 -0.007483699)
(0.01317221 0.0045755 -0.007316163)
(0.01764775 0.002927378 -0.007093304)
(0.02155227 0.00122588 -0.006808026)
(0.02482791 -0.0004341727 -0.006476865)
(0.02744619 -0.001936926 -0.006131572)
(0.02943702 -0.003165705 -0.005806588)
(0.03089227 -0.004037607 -0.005536162)
(0.03195087 -0.004498005 -0.005349327)
(0.03278707 -0.004522592 -0.005264618)
(0.03359549 -0.004127235 -0.005289837)
(0.03456836 -0.003367988 -0.005421414)
(0.03587989 -0.002328913 -0.005648148)
(0.03768449 -0.001106982 -0.005955175)
(0.04010636 0.0001687231 -0.006334309)
(0.04325389 0.001384006 -0.006787711)
(0.0472499 0.00243917 -0.007333494)
(0.05226354 0.003259573 -0.008016539)
(0.05856068 0.0038131 -0.008927024)
(0.06653949 0.00409767 -0.01020837)
(0.07678793 0.004163604 -0.01211932)
(0.09095376 0.004129836 -0.01521387)
(0.1133439 0.004162227 -0.01944936)
(-0.05223756 0.01038166 -0.01508816)
(-0.03522402 0.01118315 -0.01190089)
(-0.02434209 0.01186741 -0.009763812)
(-0.01625787 0.01222329 -0.008717006)
(-0.009458245 0.01219073 -0.008281386)
(-0.003439176 0.01178716 -0.008168068)
(0.002184045 0.0110392 -0.008159262)
(0.007352206 0.0100355 -0.008131782)
(0.01216548 0.008832417 -0.008067465)
(0.01655656 0.007502672 -0.007951126)
(0.02045726 0.006127862 -0.0077822)
(0.02381656 0.004797046 -0.007572228)
(0.02661592 0.003600448 -0.007341048)
(0.02888051 0.002611952 -0.007108483)
(0.03067564 0.001913341 -0.006902458)
(0.03210914 0.001565045 -0.006748127)
(0.0333206 0.001588772 -0.00666251)
(0.03446603 0.001969554 -0.006653934)
(0.0357043 0.002657179 -0.006723784)
(0.03718456 0.003566996 -0.006866164)
(0.03903748 0.004590879 -0.007074242)
(0.04138783 0.005634029 -0.007351186)
(0.04435888 0.006593035 -0.007707338)
(0.04809095 0.007371013 -0.008166438)
(0.05277391 0.007886548 -0.008776684)
(0.05869596 0.008083973 -0.009624861)
(0.06629559 0.007946282 -0.01085653)
(0.07621794 0.007517757 -0.01273392)
(0.09018316 0.006939914 -0.0158163)
(0.1125956 0.006473424 -0.02011434)
(-0.05019845 0.01188477 -0.01526395)
(-0.03352919 0.01325448 -0.01212976)
(-0.02306397 0.01456995 -0.01009868)
(-0.01542178 0.01550361 -0.009167665)
(-0.009043155 0.01597528 -0.008842927)
(-0.003390981 0.01601454 -0.008834583)
(0.001911679 0.01567647 -0.008923793)
(0.006838978 0.01505131 -0.008989635)
(0.01147273 0.01421545 -0.009013091)
(0.01575811 0.01324251 -0.008982935)
(0.01963337 0.01221053 -0.008898077)
(0.0230529 0.01120072 -0.008768781)
(0.02599747 0.010295 -0.008611104)
(0.0284802 0.009567569 -0.008445115)
(0.03054877 0.00908095 -0.008290028)
(0.0322863 0.008876295 -0.008163509)
(0.03380146 0.008968246 -0.008079046)