/*--------------------------------*- C++ -*----------------------------------*\
| =========                 |                                                 |
| \\      /  F ield         | OpenFOAM: The Open Source CFD Toolbox           |
|  \\    /   O peration     | Version:  2506                                  |
|   \\  /    A nd           | Website:  www.openfoam.com                      |
|    \\/     M anipulation  |                                                 |
\*---------------------------------------------------------------------------*/
FoamFile
{
    version     2.0;
    format      ascii;
    arch        "LSB;label=32;scalar=64";
    class       volScalarField;
    location    "1000/floor";
    object      T;
}
// * * * * * * * * * * * * * * * * * * * * * * * * * * * * * * * * * * * * * //

dimensions      [0 0 0 1 0 0 0];

internalField   nonuniform List<scalar> 
2700
(
300.7395
300.7398
300.7401
300.7404
300.7406
300.7408
300.741
300.7412
300.7413
300.7414
300.7415
300.7416
300.7417
300.7417
300.7417
300.7417
300.7417
300.7417
300.7416
300.7415
300.7414
300.7413
300.7412
300.741
300.7408
300.7406
300.7403
300.7401
300.7398
300.7395
300.7398
300.7401
300.7404
300.7406
300.7409
300.7411
300.7413
300.7414
300.7416
300.7417
300.7418
300.7418
300.7419
300.7419
300.7419
300.7419
300.7419
300.7419
300.7418
300.7418
300.7417
300.7416
300.7414
300.7412
300.7411
300.7408
300.7406
300.7403
300.74
300.7398
300.7401
300.7404
300.7407
300.7409
300.7412
300.7414
300.7415
300.7417
300.7418
300.7419
300.742
300.7421
300.7421
300.7422
300.7422
300.7422
300.7422
300.7421
300.7421
300.742
300.7419
300.7418
300.7417
300.7415
300.7413
300.7411
300.7409
300.7406
300.7403
300.74
300.7404
300.7407
300.7409
300.7412
300.7414
300.7416
300.7418
300.7419
300.742
300.7421
300.7422
300.7423
300.7423
300.7424
300.7424
300.7424
300.7424
300.7423
300.7423
300.7422
300.7421
300.742
300.7419
300.7417
300.7416
300.7414
300.7411
300.7409
300.7406
300.7403
300.7406
300.7409
300.7412
300.7414
300.7416
300.7418
300.742
300.7421
300.7422
300.7423
300.7424
300.7425
300.7425
300.7425
300.7426
300.7426
300.7425
300.7425
300.7425
300.7424
300.7423
300.7422
300.7421
300.7419
300.7418
300.7416
300.7414
300.7411
300.7408
300.7406
300.7408
300.7411
300.7414
300.7416
300.7418
300.742
300.7422
300.7423
300.7424
300.7425
300.7426
300.7426
300.7427
300.7427
300.7427
300.7427
300.7427
300.7427
300.7426
300.7426
300.7425
300.7424
300.7423
300.7421
300.742
300.7418
300.7416
300.7413
300.741
300.7408
300.741
300.7413
300.7416
300.7418
300.742
300.7422
300.7423
300.7424
300.7425
300.7426
300.7427
300.7428
300.7428
300.7428
300.7428
300.7428
300.7428
300.7428
300.7428
300.7427
300.7426
300.7425
300.7424
300.7423
300.7421
300.7419
300.7417
300.7415
300.7412
300.741
300.7412
300.7415
300.7417
300.7419
300.7421
300.7423
300.7424
300.7426
300.7427
300.7428
300.7428
300.7429
300.7429
300.7429
300.743
300.743
300.7429
300.7429
300.7429
300.7428
300.7427
300.7427
300.7425
300.7424
300.7423
300.7421
300.7419
300.7416
300.7414
300.7411
300.7413
300.7416
300.7418
300.7421
300.7423
300.7424
300.7426
300.7427
300.7428
300.7429
300.7429
300.743
300.743
300.743
300.743
300.743
300.743
300.743
300.743
300.7429
300.7428
300.7428
300.7427
300.7425
300.7424
300.7422
300.742
300.7418
300.7415
300.7413
300.7415
300.7417
300.742
300.7422
300.7424
300.7425
300.7427
300.7428
300.7429
300.7429
300.743
300.743
300.7431
300.7431
300.7431
300.7431
300.7431
300.7431
300.7431
300.743
300.7429
300.7428
300.7427
300.7426
300.7425
300.7423
300.7421
300.7419
300.7416
300.7414
300.7416
300.7418
300.7421
300.7423
300.7424
300.7426
300.7427
300.7428
300.7429
300.743
300.7431
300.7431
300.7431
300.7432
300.7432
300.7432
300.7432
300.7432
300.7431
300.7431
300.743
300.7429
300.7428
300.7427
300.7425
300.7424
300.7422
300.742
300.7417
300.7415
300.7417
300.7419
300.7421
300.7423
300.7425
300.7427
300.7428
300.7429
300.743
300.7431
300.7431
300.7432
300.7432
300.7432
300.7432
300.7432
300.7432
300.7432
300.7432
300.7431
300.7431
300.743
300.7429
300.7427
300.7426
300.7424
300.7422
300.742
300.7418
300.7415
300.742
300.742
300.7422
300.7424
300.7426
300.7427
300.7428
300.7429
300.743
300.7431
300.7431
300.7432
300.7432
300.7432
300.7433
300.7433
300.7433
300.7432
300.7432
300.7432
300.7431
300.743
300.7429
300.7425
300.7423
300.7421
300.7419
300.7417
300.7415
300.7415
300.7439
300.7423
300.7422
300.7424
300.7426
300.7427
300.7429
300.743
300.743
300.7431
300.7432
300.7432
300.7432
300.7433
300.7433
300.7433
300.7433
300.7433
300.7432
300.7432
300.7431
300.743
300.7426
300.7404
300.7399
300.7397
300.7395
300.7393
300.7393
300.7409
300.7442
300.7423
300.7423
300.7424
300.7426
300.7427
300.7429
300.743
300.7431
300.7431
300.7432
300.7432
300.7433
300.7433
300.7433
300.7433
300.7433
300.7433
300.7432
300.7432
300.7431
300.743
300.7426
300.7401
300.7396
300.7394
300.7392
300.739
300.7388
300.7388
300.7442
300.7423
300.7423
300.7424
300.7426
300.7427
300.7429
300.743
300.7431
300.7431
300.7432
300.7432
300.7433
300.7433
300.7433
300.7433
300.7433
300.7433
300.7432
300.7432
300.7431
300.743
300.7426
300.7401
300.7395
300.7394
300.7392
300.739
300.7387
300.7385
300.7442
300.7423
300.7422
300.7424
300.7426
300.7427
300.7429
300.743
300.743
300.7431
300.7432
300.7432
300.7432
300.7433
300.7433
300.7433
300.7433
300.7433
300.7432
300.7432
300.7431
300.743
300.7426
300.74
300.7395
300.7393
300.7391
300.7389
300.7387
300.7385
300.7439
300.7422
300.7422
300.7424
300.7426
300.7427
300.7428
300.7429
300.743
300.7431
300.7431
300.7432
300.7432
300.7432
300.7433
300.7433
300.7433
300.7432
300.7432
300.7432
300.7431
300.743
300.7425
300.74
300.7395
300.7393
300.7391
300.7389
300.7387
300.7384
300.7419
300.7419
300.7421
300.7423
300.7425
300.7427
300.7428
300.7429
300.743
300.7431
300.7432
300.7432
300.7432
300.7432
300.7432
300.7432
300.7432
300.7432
300.7432
300.7431
300.743
300.7429
300.7425
300.7403
300.7398
300.7396
300.7394
300.7392
300.739
300.7387
300.7416
300.7418
300.7421
300.7423
300.7424
300.7426
300.7427
300.7428
300.7429
300.743
300.7431
300.7431
300.7431
300.7432
300.7432
300.7432
300.7432
300.7431
300.7431
300.7431
300.743
300.7429
300.7428
300.7424
300.7422
300.742
300.7418
300.7416
300.7414
300.7411
300.7415
300.7417
300.742
300.7422
300.7424
300.7425
300.7427
300.7428
300.7429
300.7429
300.743
300.743
300.7431
300.7431
300.7431
300.7431
300.7431
300.7431
300.7431
300.743
300.7429
300.7428
300.7427
300.7426
300.7424
300.7423
300.7421
300.7418
300.7416
300.7414
300.7413
300.7416
300.7418
300.7421
300.7423
300.7424
300.7426
300.7427
300.7428
300.7429
300.7429
300.743
300.743
300.743
300.743
300.743
300.743
300.743
300.743
300.7429
300.7428
300.7428
300.7426
300.7425
300.7424
300.7422
300.742
300.7418
300.7417
300.7413
300.7412
300.7415
300.7417
300.7419
300.7421
300.7423
300.7424
300.7426
300.7427
300.7428
300.7428
300.7429
300.7429
300.7429
300.743
300.743
300.7429
300.7429
300.7429
300.7428
300.7427
300.7427
300.7425
300.7424
300.7423
300.7421
300.7419
300.7419
300.7431
300.7414
300.741
300.7413
300.7416
300.7418
300.742
300.7422
300.7423
300.7424
300.7425
300.7426
300.7427
300.7428
300.7428
300.7428
300.7428
300.7428
300.7428
300.7428
300.7428
300.7427
300.7426
300.7425
300.7424
300.7423
300.7421
300.7419
300.7417
300.7415
300.7414
300.741
300.7408
300.7411
300.7414
300.7416
300.7418
300.742
300.7422
300.7423
300.7424
300.7425
300.7426
300.7426
300.7427
300.7427
300.7427
300.7427
300.7427
300.7427
300.7426
300.7426
300.7425
300.7424
300.7423
300.7421
300.742
300.7418
300.7415
300.7413
300.741
300.7408
300.7406
300.7409
300.7412
300.7414
300.7416
300.7418
300.742
300.7421
300.7422
300.7423
300.7424
300.7425
300.7425
300.7425
300.7426
300.7426
300.7425
300.7425
300.7425
300.7424
300.7423
300.7422
300.7421
300.7419
300.7418
300.7416
300.7413
300.7411
300.7408
300.7405
300.7404
300.7407
300.7409
300.7412
300.7414
300.7416
300.7418
300.7419
300.742
300.7421
300.7422
300.7423
300.7423
300.7424
300.7424
300.7424
300.7424
300.7423
300.7423
300.7422
300.7421
300.742
300.7419
300.7417
300.7416
300.7414
300.7411
300.7409
300.7406
300.7403
300.7401
300.7404
300.7407
300.7409
300.7412
300.7414
300.7415
300.7417
300.7418
300.7419
300.742
300.7421
300.7421
300.7422
300.7422
300.7422
300.7422
300.7421
300.7421
300.742
300.7419
300.7418
300.7417
300.7415
300.7413
300.7411
300.7409
300.7406
300.7403
300.74
300.7398
300.7401
300.7404
300.7406
300.7409
300.7411
300.7413
300.7414
300.7415
300.7417
300.7418
300.7418
300.7419
300.7419
300.7419
300.7419
300.7419
300.7419
300.7418
300.7418
300.7417
300.7415
300.7414
300.7412
300.741
300.7408
300.7406
300.7403
300.74
300.7397
300.7395
300.7398
300.7401
300.7404
300.7406
300.7408
300.741
300.7412
300.7413
300.7414
300.7415
300.7416
300.7416
300.7417
300.7417
300.7417
300.7417
300.7416
300.7416
300.7415
300.7414
300.7413
300.7412
300.741
300.7408
300.7406
300.7403
300.74
300.7397
300.7395
300.2321
300.2333
300.2345
300.2355
300.2365
300.2373
300.2381
300.2387
300.2393
300.2397
300.2401
300.2404
300.2407
300.2408
300.2409
300.2409
300.2408
300.2407
300.2404
300.2401
300.2397
300.2393
300.2387
300.238
300.2372
300.2364
300.2354
300.2343
300.2331
300.2319
300.2333
300.2345
300.2356
300.2367
300.2376
300.2384
300.2391
300.2398
300.2403
300.2407
300.2411
300.2414
300.2416
300.2417
300.2418
300.2418
300.2418
300.2416
300.2414
300.2411
300.2407
300.2403
300.2397
300.239
300.2383
300.2374
300.2365
300.2354
300.2342
300.233
300.2345
300.2356
300.2368
300.2378
300.2387
300.2395
300.2402
300.2408
300.2413
300.2417
300.2421
300.2423
300.2425
300.2427
300.2428
300.2428
300.2427
300.2426
300.2423
300.2421
300.2417
300.2413
300.2407
300.2401
300.2394
300.2385
300.2376
300.2365
300.2354
300.2342
300.2356
300.2367
300.2378
300.2388
300.2397
300.2405
300.2411
300.2417
300.2422
300.2426
300.2429
300.2432
300.2434
300.2435
300.2436
300.2436
300.2435
300.2434
300.2432
300.2429
300.2426
300.2421
300.2416
300.241
300.2403
300.2395
300.2386
300.2376
300.2364
300.2353
300.2365
300.2377
300.2388
300.2397
300.2406
300.2413
300.242
300.2425
300.243
300.2434
300.2437
300.2439
300.2441
300.2442
300.2443
300.2443
300.2442
300.2441
300.2439
300.2437
300.2433
300.2429
300.2424
300.2418
300.2411
300.2404
300.2395
300.2385
300.2374
300.2363
300.2374
300.2385
300.2396
300.2405
300.2413
300.2421
300.2427
300.2432
300.2436
300.244
300.2443
300.2445
300.2447
300.2448
300.2449
300.2449
300.2448
300.2447
300.2445
300.2443
300.244
300.2436
300.2431
300.2425
300.2419
300.2411
300.2402
300.2393
300.2382
300.2371
300.2382
300.2392
300.2403
300.2412
300.242
300.2427
300.2433
300.2438
300.2442
300.2446
300.2449
300.2451
300.2452
300.2454
300.2454
300.2454
300.2454
300.2453
300.2451
300.2448
300.2445
300.2442
300.2437
300.2431
300.2425
300.2418
300.2409
300.24
300.2389
300.2379
300.2388
300.2399
300.2409
300.2418
300.2426
300.2433
300.2438
300.2443
300.2447
300.2451
300.2453
300.2455
300.2457
300.2458
300.2458
300.2459
300.2458
300.2457
300.2455
300.2453
300.245
300.2447
300.2442
300.2437
300.2431
300.2423
300.2415
300.2406
300.2395
300.2385
300.2394
300.2404
300.2414
300.2423
300.2431
300.2437
300.2443
300.2447
300.2451
300.2455
300.2457
300.2459
300.2461
300.2462
300.2462
300.2462
300.2462
300.2461
300.2459
300.2457
300.2454
300.2451
300.2446
300.2441
300.2435
300.2428
300.242
300.2411
300.2401
300.2391
300.2399
300.2409
300.2419
300.2427
300.2435
300.2441
300.2446
300.2451
300.2455
300.2458
300.246
300.2462
300.2464
300.2465
300.2465
300.2465
300.2465
300.2464
300.2462
300.246
300.2457
300.2454
300.245
300.2445
300.2439
300.2432
300.2424
300.2415
300.2405
300.2395
300.2403
300.2413
300.2423
300.2431
300.2438
300.2444
300.2449
300.2454
300.2457
300.246
300.2463
300.2465
300.2466
300.2467
300.2467
300.2468
300.2467
300.2466
300.2465
300.2463
300.246
300.2457
300.2453
300.2448
300.2442
300.2435
300.2428
300.2419
300.2409
300.2399
300.2413
300.2416
300.2425
300.2434
300.2441
300.2447
300.2452
300.2456
300.246
300.2462
300.2465
300.2466
300.2468
300.2469
300.2469
300.2469
300.2469
300.2468
300.2467
300.2465
300.2462
300.2459
300.2455
300.2449
300.2444
300.2437
300.2429
300.2421
300.2411
300.2402
300.2418
300.2419
300.2428
300.2436
300.2443
300.2448
300.2453
300.2458
300.2461
300.2464
300.2466
300.2468
300.2469
300.247
300.2471
300.2471
300.247
300.247
300.2468
300.2466
300.2464
300.246
300.2455
300.2441
300.2434
300.2427
300.2419
300.2411
300.2403
300.2402
300.2502
300.243
300.243
300.2437
300.2444
300.245
300.2455
300.2459
300.2462
300.2465
300.2467
300.2469
300.247
300.2471
300.2471
300.2472
300.2471
300.247
300.2469
300.2467
300.2465
300.2461
300.2447
300.2357
300.2334
300.2326
300.2319
300.2311
300.231
300.2375
300.2512
300.2432
300.243
300.2438
300.2444
300.245
300.2455
300.2459
300.2463
300.2465
300.2468
300.2469
300.2471
300.2471
300.2472
300.2472
300.2472
300.2471
300.247
300.2468
300.2465
300.2461
300.2446
300.2347
300.2322
300.2315
300.2308
300.2299
300.2291
300.229
300.2513
300.2432
300.243
300.2438
300.2444
300.245
300.2455
300.2459
300.2463
300.2465
300.2468
300.2469
300.247
300.2471
300.2472
300.2472
300.2472
300.2471
300.247
300.2468
300.2465
300.2461
300.2446
300.2347
300.2322
300.2314
300.2307
300.2298
300.2289
300.228
300.2511
300.2431
300.243
300.2437
300.2444
300.245
300.2455
300.2459
300.2462
300.2465
300.2467
300.2469
300.247
300.2471
300.2471
300.2472
300.2471
300.247
300.2469
300.2467
300.2465
300.2461
300.2445
300.2346
300.2321
300.2313
300.2306
300.2298
300.2288
300.2278
300.25
300.2428
300.2428
300.2436
300.2443
300.2448
300.2453
300.2458
300.2461
300.2464
300.2466
300.2468
300.2469
300.247
300.2471
300.2471
300.247
300.2469
300.2468
300.2466
300.2464
300.246
300.2444
300.2346
300.2321
300.2313
300.2306
300.2297
300.2287
300.2278
300.2416
300.2417
300.2425
300.2434
300.2441
300.2447
300.2452
300.2456
300.246
300.2463
300.2474
300.2467
300.2468
300.2469
300.2469
300.2469
300.2469
300.2468
300.2467
300.2465
300.2462
300.2458
300.2444
300.2354
300.2331
300.2323
300.2316
300.2307
300.2297
300.2287
300.2403
300.2413
300.2422
300.2431
300.2438
300.2444
300.2449
300.2454
300.2457
300.246
300.2463
300.2465
300.2466
300.2467
300.2467
300.2467
300.2467
300.2466
300.2465
300.2463
300.246
300.2457
300.2451
300.2437
300.2429
300.2422
300.2415
300.2406
300.2396
300.2386
300.2399
300.2409
300.2419
300.2427
300.2435
300.2441
300.2446
300.2451
300.2455
300.2458
300.246
300.2462
300.2463
300.2464
300.2465
300.2465
300.2465
300.2464
300.2462
300.246
300.2457
300.2454
300.245
300.2444
300.2438
300.2431
300.2423
300.2415
300.2405
300.2394
300.2394
300.2404
300.2414
300.2423
300.2431
300.2437
300.2443
300.2447
300.2451
300.2454
300.2457
300.2459
300.246
300.2461
300.2462
300.2462
300.2462
300.2461
300.2459
300.2457
300.2454
300.2451
300.2446
300.2441
300.2435
300.2428
300.242
300.2412
300.2409
300.2392
300.2388
300.2399
300.2409
300.2418
300.2426
300.2432
300.2438
300.2443
300.2447
300.245
300.2453
300.2455
300.2457
300.2458
300.2458
300.2458
300.2458
300.2457
300.2455
300.2453
300.245
300.2446
300.2442
300.2437
300.243
300.2423
300.2416
300.2414
300.2469
300.2394
300.2381
300.2392
300.2403
300.2412
300.242
300.2427
300.2433
300.2438
300.2442
300.2446
300.2448
300.245
300.2452
300.2453
300.2454
300.2454
300.2453
300.2452
300.2451
300.2448
300.2445
300.2441
300.2437
300.2431
300.2425
300.2417
300.2409
300.2401
300.2397
300.238
300.2374
300.2385
300.2396
300.2405
300.2413
300.242
300.2426
300.2432
300.2436
300.244
300.2443
300.2445
300.2447
300.2448
300.2449
300.2449
300.2448
300.2447
300.2445
300.2443
300.2439
300.2436
300.2431
300.2425
300.2418
300.2411
300.2402
300.2393
300.2382
300.2371
300.2365
300.2376
300.2387
300.2397
300.2405
300.2413
300.2419
300.2425
300.2429
300.2433
300.2436
300.2439
300.2441
300.2442
300.2442
300.2443
300.2442
300.2441
300.2439
300.2436
300.2433
300.2429
300.2424
300.2418
300.2411
300.2403
300.2394
300.2384
300.2373
300.2362
300.2355
300.2367
300.2378
300.2388
300.2397
300.2404
300.2411
300.2417
300.2422
300.2426
300.2429
300.2431
300.2433
300.2435
300.2435
300.2435
300.2435
300.2433
300.2431
300.2429
300.2425
300.2421
300.2416
300.241
300.2403
300.2395
300.2385
300.2375
300.2364
300.2353
300.2344
300.2356
300.2367
300.2378
300.2387
300.2395
300.2402
300.2407
300.2413
300.2417
300.242
300.2423
300.2425
300.2426
300.2427
300.2427
300.2426
300.2425
300.2423
300.242
300.2417
300.2412
300.2407
300.24
300.2393
300.2385
300.2375
300.2365
300.2353
300.2342
300.2332
300.2344
300.2356
300.2366
300.2376
300.2384
300.2391
300.2397
300.2402
300.2407
300.2411
300.2413
300.2416
300.2417
300.2418
300.2418
300.2417
300.2416
300.2413
300.2411
300.2407
300.2402
300.2397
300.239
300.2382
300.2374
300.2364
300.2354
300.2342
300.233
300.2321
300.2333
300.2344
300.2355
300.2364
300.2373
300.238
300.2387
300.2392
300.2397
300.2401
300.2404
300.2406
300.2408
300.2408
300.2408
300.2408
300.2406
300.2404
300.2401
300.2397
300.2392
300.2386
300.238
300.2372
300.2363
300.2353
300.2342
300.233
300.2319
300.1361
300.1404
300.1445
300.1483
300.1516
300.1546
300.1572
300.1595
300.1614
300.1631
300.1644
300.1654
300.1662
300.1668
300.167
300.167
300.1668
300.1662
300.1654
300.1644
300.163
300.1613
300.1592
300.1569
300.1542
300.1511
300.1476
300.1437
300.1395
300.1352
300.1404
300.1446
300.1487
300.1524
300.1557
300.1585
300.1611
300.1632
300.1651
300.1667
300.1679
300.1689
300.1697
300.1702
300.1704
300.1704
300.1702
300.1697
300.1689
300.1679
300.1665
300.1649
300.1629
300.1606
300.158
300.155
300.1516
300.1478
300.1436
300.1394
300.1446
300.1488
300.1528
300.1564
300.1596
300.1623
300.1648
300.1669
300.1686
300.1701
300.1713
300.1723
300.173
300.1735
300.1737
300.1737
300.1735
300.173
300.1723
300.1713
300.17
300.1684
300.1665
300.1643
300.1617
300.1588
300.1555
300.1518
300.1477
300.1435
300.1484
300.1525
300.1565
300.16
300.163
300.1657
300.1681
300.1701
300.1718
300.1732
300.1743
300.1752
300.1759
300.1764
300.1766
300.1766
300.1764
300.1759
300.1752
300.1743
300.173
300.1715
300.1697
300.1675
300.1651
300.1622
300.159
300.1554
300.1514
300.1473
300.1519
300.1559
300.1597
300.1631
300.1661
300.1687
300.171
300.1729
300.1745
300.1759
300.177
300.1778
300.1784
300.1789
300.1791
300.1791
300.1789
300.1785
300.1778
300.1769
300.1757
300.1742
300.1725
300.1704
300.168
300.1652
300.1621
300.1586
300.1547
300.1507
300.1549
300.1589
300.1626
300.1659
300.1688
300.1713
300.1735
300.1753
300.1769
300.1782
300.1792
300.18
300.1806
300.181
300.1812
300.1812
300.181
300.1806
300.18
300.1791
300.178
300.1766
300.1749
300.1729
300.1706
300.1679
300.1649
300.1614
300.1576
300.1537
300.1576
300.1615
300.1652
300.1684
300.1712
300.1736
300.1757
300.1774
300.1789
300.1802
300.1811
300.1819
300.1825
300.1829
300.1831
300.1831
300.1829
300.1825
300.1819
300.181
300.18
300.1786
300.177
300.1751
300.1728
300.1702
300.1672
300.1639
300.1601
300.1563
300.16
300.1638
300.1673
300.1705
300.1732
300.1755
300.1776
300.1792
300.1807
300.1818
300.1828
300.1835
300.184
300.1844
300.1846
300.1846
300.1844
300.1841
300.1835
300.1827
300.1816
300.1804
300.1788
300.1769
300.1747
300.1722
300.1693
300.166
300.1624
300.1586
300.162
300.1657
300.1692
300.1723
300.1749
300.1772
300.1791
300.1808
300.1821
300.1832
300.1841
300.1848
300.1853
300.1857
300.1859
300.1859
300.1857
300.1854
300.1848
300.1841
300.183
300.1818
300.1803
300.1785
300.1763
300.1739
300.1711
300.1679
300.1643
300.1606
300.1637
300.1673
300.1708
300.1738
300.1764
300.1786
300.1804
300.182
300.1833
300.1844
300.1853
300.1859
300.1864
300.1868
300.1869
300.1869
300.1868
300.1864
300.1859
300.1852
300.1842
300.183
300.1815
300.1798
300.1777
300.1753
300.1725
300.1694
300.1659
300.1622
300.1652
300.1687
300.172
300.175
300.1775
300.1797
300.1815
300.183
300.1843
300.1853
300.1861
300.1868
300.1873
300.1876
300.1878
300.1878
300.1876
300.1873
300.1868
300.1861
300.1851
300.184
300.1825
300.1808
300.1788
300.1764
300.1737
300.1706
300.1671
300.1636
300.176
300.1699
300.173
300.1759
300.1784
300.1805
300.1823
300.1838
300.185
300.186
300.1868
300.1875
300.1879
300.1882
300.1884
300.1884
300.1883
300.188
300.1875
300.1868
300.1859
300.1847
300.1833
300.1814
300.1794
300.1771
300.1744
300.1714
300.168
300.1646
300.1699
300.1708
300.1738
300.1766
300.1791
300.1812
300.1829
300.1844
300.1856
300.1866
300.1873
300.1879
300.1884
300.1887
300.1889
300.1889
300.1888
300.1885
300.188
300.1873
300.1864
300.1852
300.1835
300.1793
300.1768
300.1745
300.1719
300.1689
300.1658
300.1646
300.2022
300.1738
300.1744
300.1771
300.1795
300.1816
300.1833
300.1848
300.1859
300.1869
300.1877
300.1883
300.1887
300.189
300.1892
300.1892
300.1891
300.1888
300.1883
300.1876
300.1867
300.1855
300.1814
300.1544
300.1395
300.1368
300.1342
300.1314
300.1304
300.1493
300.2051
300.1743
300.1747
300.1774
300.1798
300.1818
300.1835
300.1849
300.1861
300.1871
300.1878
300.1884
300.1889
300.1892
300.1893
300.1894
300.1892
300.1889
300.1885
300.1878
300.1869
300.1856
300.1812
300.1519
300.1365
300.1338
300.1312
300.1282
300.1252
300.1241
300.2053
300.1743
300.1747
300.1773
300.1797
300.1818
300.1835
300.1849
300.1861
300.1871
300.1878
300.1884
300.1889
300.1892
300.1893
300.1894
300.1892
300.1889
300.1885
300.1878
300.1869
300.1856
300.1812
300.1517
300.1363
300.1336
300.131
300.128
300.1247
300.1213
300.2048
300.1741
300.1745
300.1771
300.1795
300.1816
300.1833
300.1847
300.1859
300.1869
300.1877
300.1883
300.1887
300.189
300.1892
300.1892
300.1891
300.1888
300.1883
300.1876
300.1867
300.1854
300.181
300.1515
300.136
300.1334
300.1308
300.1278
300.1244
300.1209
300.2017
300.1732
300.1739
300.1766
300.1791
300.1812
300.1829
300.1844
300.1856
300.1866
300.1876
300.1879
300.1884
300.1887
300.1889
300.1889
300.1887
300.1885
300.188
300.1873
300.1864
300.1851
300.1806
300.1513
300.1358
300.1331
300.1305
300.1275
300.1241
300.1206
300.1688
300.17
300.1731
300.1759
300.1784
300.1805
300.1823
300.1838
300.185
300.1863
300.2001
300.1877
300.1879
300.1882
300.1884
300.1884
300.1883
300.188
300.1875
300.1868
300.1858
300.1845
300.1804
300.1534
300.1384
300.1357
300.133
300.13
300.1266
300.123
300.1652
300.1687
300.172
300.175
300.1775
300.1796
300.1815
300.183
300.1843
300.1853
300.1864
300.1868
300.1872
300.1876
300.1877
300.1877
300.1876
300.1873
300.1868
300.186
300.1851
300.1839
300.1822
300.1779
300.1753
300.1729
300.1702
300.1672
300.1637
300.1601
300.1636
300.1673
300.1707
300.1737
300.1763
300.1785
300.1804
300.182
300.1833
300.1844
300.1852
300.1859
300.1864
300.1867
300.1869
300.1869
300.1867
300.1864
300.1859
300.1851
300.1842
300.183
300.1815
300.1795
300.1774
300.175
300.1723
300.1692
300.1658
300.162
300.1619
300.1657
300.1692
300.1722
300.1749
300.1772
300.1791
300.1807
300.1821
300.1832
300.1841
300.1848
300.1853
300.1856
300.1858
300.1858
300.1857
300.1853
300.1848
300.184
300.183
300.1818
300.1802
300.1784
300.1763
300.1738
300.171
300.1681
300.1665
300.1608
300.1599
300.1637
300.1673
300.1704
300.1731
300.1755
300.1775
300.1792
300.1806
300.1818
300.1827
300.1834
300.184
300.1843
300.1845
300.1845
300.1844
300.184
300.1834
300.1826
300.1816
300.1803
300.1787
300.1768
300.1747
300.1721
300.1694
300.1683
300.192
300.161
300.1576
300.1614
300.1651
300.1683
300.1711
300.1735
300.1756
300.1774
300.1789
300.1801
300.1811
300.1818
300.1824
300.1828
300.183
300.183
300.1828
300.1824
300.1818
300.181
300.1799
300.1785
300.1769
300.175
300.1727
300.1701
300.1672
300.1641
300.1624
300.1565
300.1549
300.1588
300.1625
300.1658
300.1687
300.1712
300.1734
300.1752
300.1768
300.1781
300.1791
300.1799
300.1805
300.1809
300.1811
300.1811
300.1809
300.1805
300.1799
300.179
300.1779
300.1765
300.1748
300.1728
300.1705
300.1678
300.1648
300.1614
300.1576
300.1536
300.1518
300.1558
300.1596
300.163
300.166
300.1686
300.1709
300.1728
300.1744
300.1758
300.1768
300.1777
300.1783
300.1788
300.179
300.179
300.1788
300.1783
300.1777
300.1768
300.1756
300.1741
300.1724
300.1703
300.1679
300.1651
300.162
300.1585
300.1546
300.1506
300.1483
300.1524
300.1564
300.1598
300.1629
300.1656
300.1679
300.1699
300.1716
300.1731
300.1742
300.1751
300.1758
300.1762
300.1765
300.1765
300.1762
300.1758
300.1751
300.1741
300.1729
300.1714
300.1696
300.1674
300.1649
300.1621
300.1589
300.1553
300.1513
300.1472
300.1445
300.1487
300.1527
300.1563
300.1594
300.1622
300.1646
300.1667
300.1685
300.17
300.1712
300.1721
300.1728
300.1733
300.1736
300.1736
300.1733
300.1729
300.1721
300.1711
300.1698
300.1683
300.1664
300.1641
300.1616
300.1587
300.1553
300.1516
300.1476
300.1434
300.1402
300.1445
300.1486
300.1522
300.1555
300.1584
300.1609
300.1631
300.1649
300.1665
300.1678
300.1688
300.1695
300.17
300.1703
300.1703
300.17
300.1695
300.1688
300.1677
300.1664
300.1647
300.1628
300.1605
300.1578
300.1548
300.1514
300.1476
300.1435
300.1393
300.136
300.1403
300.1444
300.1481
300.1515
300.1544
300.157
300.1593
300.1612
300.1629
300.1642
300.1653
300.166
300.1666
300.1669
300.1669
300.1666
300.1661
300.1653
300.1642
300.1628
300.1611
300.1591
300.1567
300.154
300.1509
300.1474
300.1436
300.1393
300.1351
)
;

boundaryField
{
    fmaxY
    {
        type            zeroGradient;
    }
    fminX
    {
        type            zeroGradient;
    }
    fmaxX
    {
        type            zeroGradient;
    }
    fminY
    {
        type            zeroGradient;
    }
    fminZ
    {
        type            externalWallHeatFluxTemperature;
        mode            coefficient;
        kappaMethod     solidThermo;
        kappa           none;
        h               constant 1000000;
        Ta              uniform 313;
        thicknessLayers List<scalar> 2(1 2);
        kappaLayers     List<scalar> 2(100 200);
        qr              none;
        refValue        uniform 313;
        refGradient     uniform 0;
        valueFraction   nonuniform List<scalar> 
900
(
0.04950261
0.04950261
0.04950261
0.04950261
0.04950261
0.04950261
0.04950261
0.04950261
0.04950261
0.04950261
0.04950261
0.04950261
0.04950261
0.04950261
0.04950261
0.04950261
0.04950261
0.04950261
0.04950261
0.04950261
0.04950261
0.04950261
0.04950261
0.04950261
0.04950261
0.04950261
0.04950261
0.04950261
0.04950261
0.04950261
0.04950261
0.04950261
0.04950261
0.04950261
0.04950261
0.04950261
0.04950261
0.04950261
0.04950261
0.04950261
0.04950261
0.04950261
0.04950261
0.04950261
0.04950261
0.04950261
0.04950261
0.04950261
0.04950261
0.04950261
0.04950261
0.04950261
0.04950261
0.04950261
0.04950261
0.04950261
0.04950261
0.04950261
0.04950261
0.04950261
0.04950261
0.04950261
0.04950261
0.04950261
0.04950261
0.04950261
0.04950261
0.04950261
0.04950261
0.04950261
0.04950261
0.04950261
0.04950261
0.04950261
0.04950261
0.04950261
0.04950261
0.04950261
0.04950261
0.04950261
0.04950261
0.04950261
0.04950261
0.04950261
0.04950261
0.04950261
0.04950261
0.04950261
0.04950261
0.04950261
0.04950261
0.04950261
0.04950261
0.04950261
0.04950261
0.04950261
0.04950261
0.04950261
0.04950261
0.04950261
0.04950261
0.04950261
0.04950261
0.04950261
0.04950261
0.04950261
0.04950261
0.04950261
0.04950261
0.04950261
0.04950261
0.04950261
0.04950261
0.04950261
0.04950261
0.04950261
0.04950261
0.04950261
0.04950261
0.04950261
0.04950261
0.04950261
0.04950261
0.04950261
0.04950261
0.04950261
0.04950261
0.04950261
0.04950261
0.04950261
0.04950261
0.04950261
0.04950261
0.04950261
0.04950261
0.04950261
0.04950261
0.04950261
0.04950261
0.04950261
0.04950261
0.04950261
0.04950261
0.04950261
0.04950261
0.04950261
0.04950261
0.04950261
0.04950261
0.04950261
0.04950261
0.04950261
0.04950261
0.04950261
0.04950261
0.04950261
0.04950261
0.04950261
0.04950261
0.04950261
0.04950261
0.04950261
0.04950261
0.04950261
0.04950261
0.04950261
0.04950261
0.04950261
0.04950261
0.04950261
0.04950261
0.04950261
0.04950261
0.04950261
0.04950261
0.04950261
0.04950261
0.04950261
0.04950261
0.04950261
0.04950261
0.04950261
0.04950261
0.04950261
0.04950261
0.04950261
0.04950261
0.04950261
0.04950261
0.04950261
0.04950261
0.04950261
0.04950261
0.04950261
0.04950261
0.04950261
0.04950261
0.04950261
0.04950261
0.04950261
0.04950261
0.04950261
0.04950261
0.04950261
0.04950261
0.04950261
0.04950261
0.04950261
0.04950261
0.04950261
0.04950261
0.04950261
0.04950261
0.04950261
0.04950261
0.04950261
0.04950261
0.04950261
0.04950261
0.04950261
0.04950261
0.04950261
0.04950261
0.04950261
0.04950261
0.04950261
0.04950261
0.04950261
0.04950261
0.04950261
0.04950261
0.04950261
0.04950261
0.04950261
0.04950261
0.04950261
0.04950261
0.04950261
0.04950261
0.04950261
0.04950261
0.04950261
0.04950261
0.04950261
0.04950261
0.04950261
0.04950261
0.04950261
0.04950261
0.04950261
0.04950261
0.04950261
0.04950261
0.04950261
0.04950261
0.04950261
0.04950261
0.04950261
0.04950261
0.04950261
0.04950261
0.04950261
0.04950261
0.04950261
0.04950261
0.04950261
0.04950261
0.04950261
0.04950261
0.04950261
0.04950261
0.04950261
0.04950261
0.04950261
0.04950261
0.04950261
0.04950261
0.04950261
0.04950261
0.04950261
0.04950261
0.04950261
0.04950261
0.04950261
0.04950261
0.04950261
0.04950261
0.04950261
0.04950261
0.04950261
0.04950261
0.04950261
0.04950261
0.04950261
0.04950261
0.04950261
0.04950261
0.04950261
0.04950261
0.04950261
0.04950261
0.04950261
0.04950261
0.04950261
0.04950261
0.04950261
0.04950261
0.04950261
0.04950261
0.04950261
0.04950261
0.04950261
0.04950261
0.04950261
0.04950261
0.04950261
0.04950261
0.04950261
0.04950261
0.04950261
0.04950261
0.04950261
0.04950261
0.04950261
0.04950261
0.04950261
0.04950261
0.04950261
0.04950261
0.04950261
0.04950261
0.04950261
0.04950261
0.04950261
0.04950261
0.04950261
0.04950261
0.04950261
0.04950261
0.04950261
0.04950261
0.04950261
0.04950261
0.04950261
0.04950261
0.04950261
0.04950261
0.04950261
0.04950261
0.04950261
0.04950261
0.04950261
0.04950261
0.04950261
0.04950261
0.04950261
0.04950261
0.04950261
0.04950261
0.04950261
0.04950261
0.04950261
0.04950261
0.04950261
0.04950261
0.04950261
0.04950261
0.04950261
0.04950261
0.04950261
0.04950261
0.04950261
0.04950261
0.04950261
0.04950261
0.04950261
0.04950261
0.04950261
0.04950261
0.04950261
0.04950261
0.04950261
0.04950261
0.04950261
0.04950261
0.04950261
0.04950261
0.04950261
0.04950261
0.04950261