/*--------------------------------*- C++ -*----------------------------------*\
| =========                 |                                                 |
| \\      /  F ield         | OpenFOAM: The Open Source CFD Toolbox           |
|  \\    /   O peration     | Version:  2506                                  |
|   \\  /    A nd           | Website:  www.openfoam.com                      |
|    \\/     M anipulation  |                                                 |
\*---------------------------------------------------------------------------*/
FoamFile
{
    version     2.0;
    format      ascii;
    arch        "LSB;label=32;scalar=64";
    class       volScalarField;
    location    "90/panel";
    object      T;
}
// * * * * * * * * * * * * * * * * * * * * * * * * * * * * * * * * * * * * * //

dimensions      [0 0 0 1 0 0 0];

internalField   nonuniform List<scalar> 
119440
(
300.1805
300.1779
300.168
300.1679
300.1715
300.1711
300.1685
300.1692
300.1702
300.1705
300.1696
300.1688
300.1686
300.1689
300.3174
300.1702
300.1405
300.1676
300.1582
300.138
300.1317
300.1581
300.1611
300.1316
300.1313
300.1608
300.1587
300.1313
300.1312
300.1593
300.1602
300.1312
300.1313
300.1603
300.1596
300.1313
300.1315
300.159
300.1589
300.1314
300.1327
300.1592
300.3023
300.133
300.2588
300.1397
300.1294
300.1372
300.1309
300.1271
300.1206
300.1308
300.1305
300.1205
300.12
300.1305
300.1303
300.12
300.1199
300.1304
300.1305
300.1199
300.12
300.1305
300.1306
300.12
300.1203
300.1306
300.1319
300.1203
300.1221
300.1322
300.2585
300.1225
300.2451
300.1288
300.121
300.1265
300.1201
300.1188
300.1125
300.1199
300.1194
300.1124
300.1117
300.1194
300.1193
300.1117
300.1116
300.1193
300.1194
300.1116
300.1117
300.1194
300.1197
300.1117
300.1121
300.1197
300.1216
300.1122
300.1146
300.122
300.2443
300.115
300.2326
300.1205
300.1141
300.1184
300.1121
300.1122
300.1061
300.112
300.1113
300.106
300.1052
300.1112
300.1111
300.1052
300.105
300.1111
300.1113
300.105
300.1052
300.1113
300.1117
300.1052
300.1058
300.1118
300.1141
300.1058
300.1086
300.1146
300.2319
300.109
300.2185
300.1137
300.1082
300.1118
300.1058
300.1064
300.1007
300.1057
300.1048
300.1006
300.0997
300.1048
300.1047
300.0997
300.0995
300.1047
300.1048
300.0995
300.0997
300.1048
300.1054
300.0997
300.1004
300.1055
300.1082
300.1005
300.1034
300.1086
300.2168
300.1039
300.2087
300.1079
300.1029
300.1061
300.1004
300.1013
300.096
300.1003
300.0994
300.0959
300.095
300.0994
300.0992
300.0949
300.0948
300.0992
300.0994
300.0948
300.095
300.0994
300.1001
300.095
300.0958
300.1002
300.1032
300.0959
300.0989
300.1036
300.2083
300.0994
300.2028
300.1026
300.0982
300.101
300.0957
300.0967
300.0917
300.0956
300.0947
300.0916
300.0907
300.0946
300.0945
300.0907
300.0905
300.0945
300.0947
300.0905
300.0907
300.0947
300.0955
300.0908
300.0916
300.0956
300.0987
300.0918
300.0949
300.0991
300.2018
300.0953
300.1928
300.0979
300.0938
300.0964
300.0915
300.0925
300.0878
300.0913
300.0904
300.0877
300.0868
300.0904
300.0902
300.0868
300.0866
300.0902
300.0905
300.0867
300.0869
300.0905
300.0914
300.087
300.0879
300.0915
300.0946
300.088
300.0911
300.095
300.1917
300.0915
300.1856
300.0936
300.0899
300.0922
300.0876
300.0886
300.0843
300.0875
300.0866
300.0842
300.0833
300.0866
300.0864
300.0833
300.0832
300.0864
300.0867
300.0832
300.0835
300.0867
300.0877
300.0835
300.0845
300.0878
300.0909
300.0846
300.0877
300.0913
300.1847
300.0881
300.1793
300.0896
300.0864
300.0884
300.0841
300.0852
300.0811
300.084
300.0831
300.081
300.0803
300.0831
300.083
300.0803
300.0802
300.083
300.0833
300.0802
300.0805
300.0833
300.0843
300.0805
300.0815
300.0844
300.0875
300.0816
300.0847
300.0879
300.178
300.0851
300.1721
300.0862
300.0835
300.085
300.081
300.0824
300.0788
300.0809
300.0801
300.0787
300.0781
300.0801
300.08
300.078
300.078
300.08
300.0803
300.078
300.0784
300.0804
300.0814
300.0784
300.0794
300.0815
300.0845
300.0795
300.0825
300.0849
300.1718
300.0829
300.1676
300.0833
300.1274
300.0823
300.0787
300.1259
300.1234
300.0786
300.078
300.1229
300.1238
300.078
300.0779
300.1239
300.1217
300.0779
300.0783
300.1221
300.1256
300.0783
300.0794
300.1262
300.1269
300.0795
300.0824
300.1273
300.1318
300.0828
300.1669
300.1327
300.2234
300.0567
300.0711
300.0679
300.0594
300.0562
300.0672
300.0671
300.0563
300.056
300.067
300.0669
300.0561
300.0559
300.0669
300.0668
300.056
300.0559
300.0667
300.0668
300.0559
300.056
300.0669
300.0668
300.0559
300.0597
300.0675
300.0712
300.0565
300.0504
300.0552
300.0527
300.0529
300.0499
300.0523
300.0522
300.0499
300.0497
300.0521
300.0521
300.0498
300.0497
300.052
300.052
300.0497
300.0497
300.052
300.052
300.0497
300.0499
300.052
300.0521
300.0498
300.0538
300.0527
300.0559
300.0506
300.0454
300.0496
300.0471
300.0478
300.0448
300.0466
300.0465
300.0449
300.0446
300.0464
300.0464
300.0447
300.0446
300.0464
300.0464
300.0446
300.0446
300.0464
300.0464
300.0446
300.045
300.0465
300.0467
300.0448
300.049
300.0475
300.0507
300.0459
300.0415
300.0451
300.0429
300.0437
300.0408
300.0423
300.0422
300.041
300.0407
300.0421
300.0421
300.0407
300.0407
300.0421
300.0421
300.0407
300.0408
300.0421
300.0422
300.0407
300.0413
300.0423
300.0426
300.041
300.0452
300.0436
300.0465
300.0423
300.0383
300.0415
300.0395
300.0403
300.0377
300.0389
300.0388
300.0378
300.0375
300.0387
300.0387
300.0376
300.0375
300.0387
300.0387
300.0375
300.0377
300.0387
300.0388
300.0376
300.0383
300.0391
300.0394
300.038
300.042
300.0404
300.0431
300.0393
300.0355
300.0384
300.0366
300.0373
300.0349
300.036
300.0359
300.035
300.0348
300.0358
300.0358
300.0348
300.0348
300.0358
300.0358
300.0348
300.035
300.0359
300.036
300.0349
300.0357
300.0363
300.0366
300.0353
300.0391
300.0377
300.0402
300.0367
300.033
300.0356
300.034
300.0346
300.0324
300.0334
300.0333
300.0325
300.0323
300.0332
300.0332
300.0323
300.0324
300.0332
300.0333
300.0323
300.0326
300.0334
300.0335
300.0325
300.0333
300.0338
300.0342
300.0329
300.0365
300.0352
300.0375
300.0343
300.0307
300.033
300.0316
300.0321
300.0301
300.0311
300.031
300.0302
300.03
300.0309
300.0309
300.0301
300.0301
300.0309
300.0309
300.0301
300.0304
300.0311
300.0312
300.0302
300.0311
300.0315
300.0319
300.0307
300.0342
300.0329
300.035
300.0321
300.0285
300.0306
300.0293
300.0298
300.028
300.0289
300.0288
300.0281
300.028
300.0287
300.0287
300.028
300.028
300.0288
300.0288
300.028
300.0283
300.029
300.0291
300.0282
300.029
300.0295
300.0298
300.0287
300.0319
300.0308
300.0328
300.03
300.0265
300.0284
300.0273
300.0277
300.0261
300.0269
300.0268
300.0262
300.026
300.0267
300.0267
300.026
300.0261
300.0268
300.0268
300.0261
300.0264
300.027
300.0271
300.0263
300.0271
300.0275
300.0279
300.0268
300.0299
300.0288
300.0307
300.0281
300.0247
300.0264
300.0254
300.0257
300.0243
300.025
300.025
300.0244
300.0243
300.0249
300.0249
300.0243
300.0244
300.025
300.025
300.0244
300.0247
300.0252
300.0254
300.0246
300.0254
300.0257
300.0261
300.0251
300.028
300.0269
300.0287
300.0263
300.0237
300.0247
300.0238
300.0245
300.0234
300.0235
300.0234
300.0235
300.0235
300.0234
300.0234
300.0234
300.0236
300.0235
300.0236
300.0236
300.024
300.0238
300.0239
300.0238
300.0246
300.0243
300.0246
300.0243
300.0271
300.0254
300.027
300.0255
300.5125
300.0917
300.3246
300.2071
300.4958
300.4663
300.317
300.071
300.6229
300.3027
300.1939
300.3145
300.0861
300.3207
300.0826
300.292
300.4623
300.0577
300.1717
300.2986
300.4569
300.0556
300.3143
300.082
300.3136
300.0824
300.2917
300.4567
300.1716
300.0548
300.4595
300.291
300.0551
300.313
300.0819
300.3135
300.0817
300.2905
300.4568
300.0547
300.1683
300.2909
300.4545
300.0546
300.313
300.0816
300.3127
300.0817
300.2904
300.4572
300.1687
300.0547
300.4557
300.2902
300.0547
300.3127
300.0816
300.3127
300.0816
300.2901
300.4573
300.0546
300.1677
300.2901
300.4567
300.0545
300.3127
300.0815
300.3126
300.0816
300.2901
300.4549
300.1673
300.0544
300.4551
300.2899
300.0544
300.3123
300.0815
300.3125
300.0814
300.2897
300.455
300.0545
300.1719
300.2899
300.4561
300.0546
300.3122
300.0812
300.3121
300.0813
300.2897
300.4552
300.172
300.0545
300.457
300.2895
300.0546
300.3122
300.0812
300.3121
300.0814
300.2896
300.4532
300.0545
300.1719
300.2895
300.4556
300.0546
300.3122
300.0815
300.3124
300.0814
300.2896
300.4555
300.1719
300.0545
300.4554
300.2897
300.0546
300.3124
300.0815
300.3124
300.0814
300.2898
300.4565
300.0544
300.1676
300.2898
300.454
300.0543
300.3124
300.0818
300.313
300.0814
300.2899
300.4568
300.1677
300.0545
300.4549
300.2905
300.0544
300.3194
300.0821
300.3133
300.086
300.2973
300.4562
300.055
300.1743
300.2908
300.4603
300.0572
300.3233
300.2113
300.5123
300.0921
300.3013
300.6212
300.1777
300.1984
300.4683
300.4977
300.0712
300.1687
300.0763
300.1948
300.064
300.158
300.3035
300.0439
300.1478
300.1821
300.2708
300.0383
300.1677
300.0603
300.063
300.1623
300.1571
300.1467
300.2545
300.0352
300.2672
300.0365
300.1522
300.0261
300.0327
300.1615
300.1452
300.0309
300.0277
300.1402
300.0565
300.0673
300.0677
300.0563
300.0258
300.1614
300.0303
300.1388
300.0305
300.14
300.0256
300.0558
300.056
300.0585
300.0534
300.0247
300.1441
300.0253
300.133
300.0263
300.1392
300.0238
300.0556
300.0531
300.0554
300.0533
300.0244
300.1378
300.1328
300.0234
300.139
300.0243
300.0235
300.0256
300.0302
300.1586
300.1386
300.0302
300.0256
300.1389
300.0562
300.067
300.0671
300.0561
300.0256
300.159
300.0303
300.1388
300.0303
300.1389
300.0255
300.0553
300.053
300.0554
300.053
300.0242
300.1377
300.0233
300.1315
300.0243
300.1379
300.0233
300.0553
300.0529
300.0552
300.0529
300.0242
300.1377
300.1315
300.0233
300.1379
300.0242
300.0233
300.0254
300.0302
300.1579
300.1388
300.0301
300.0255
300.1381
300.056
300.0669
300.0669
300.056
300.0254
300.1576
300.0301
300.1385
300.0301
300.1381
300.0254
300.0552
300.0529
300.0552
300.0528
300.0241
300.1377
300.0232
300.131
300.0242
300.1372
300.0232
300.0551
300.0528
300.0551
300.0528
300.0241
300.1375
300.131
300.0232
300.1372
300.0241
300.0232
300.0255
300.0302
300.1616
300.1385
300.0302
300.0255
300.1389
300.0559
300.0667
300.0668
300.0559
300.0255
300.1616
300.0301
300.1386
300.0302
300.1389
300.0255
300.0551
300.0528
300.0551
300.0528
300.0241
300.1375
300.0232
300.1313
300.0241
300.1378
300.0232
300.0551
300.0528
300.0551
300.0528
300.0241
300.1376
300.1313
300.0232
300.1378
300.0241
300.0232
300.0255
300.0302
300.1616
300.1386
300.0302
300.0255
300.1389
300.0559
300.0669
300.0668
300.0559
300.0255
300.1615
300.0301
300.1387
300.0302
300.1389
300.0254
300.0551
300.0527
300.0551
300.0527
300.0241
300.1376
300.0232
300.1314
300.0241
300.1378
300.0232
300.0551
300.0527
300.0551
300.0527
300.0241
300.1377
300.1314
300.0232
300.1378
300.0241
300.0232
300.0254
300.0301
300.158
300.1387
300.03
300.0254
300.1387
300.0561
300.0672
300.0669
300.0563
300.0255
300.158
300.0302
300.1396
300.0301
300.1388
300.0256
300.0552
300.0528
300.0551
300.0529
300.0241
300.1377
300.0232
300.1316
300.0241
300.1377
300.0233
300.0552
300.0532
300.0555
300.0529
300.0242
300.1386
300.1317
300.0234
300.1378
300.0243
300.0233
300.0278
300.0306
300.1647
300.1399
300.0325
300.0259
300.1454
300.065
300.1999
300.0769
300.1773
300.0393
300.168
300.1874
300.275
300.0447
300.1483
300.1659
300.0588
300.0534
300.0556
300.0566
300.0264
300.1389
300.0238
300.1388
300.0246
300.1445
300.0255
300.064
300.1714
300.1765
300.0616
300.0376
300.2713
300.1417
300.1606
300.1474
300.1652
300.0365
300.1563
300.0595
300.1615
300.0571
300.1467
300.2537
300.0341
300.1346
300.1515
300.2443
300.033
300.1556
300.0541
300.0563
300.1507
300.146
300.1339
300.2352
300.031
300.2435
300.032
300.1415
300.0222
300.0244
300.1322
300.1321
300.023
300.0236
300.127
300.0502
300.0523
300.0525
300.05
300.0219
300.132
300.0226
300.1257
300.0227
300.1268
300.0218
300.0497
300.0502
300.0522
300.0477
300.0215
300.1314
300.0222
300.122
300.0229
300.1264
300.0208
300.0495
300.0473
300.0493
300.0475
300.0212
300.125
300.1218
300.0204
300.1261
300.0211
300.0205
300.0217
300.0225
300.1307
300.1256
300.0225
300.0217
300.1253
300.0499
300.0521
300.0522
300.0498
300.0217
300.1306
300.0224
300.1252
300.0225
300.1253
300.0217
300.0492
300.0472
300.0493
300.0471
300.021
300.1249
300.0203
300.1202
300.021
300.1247
300.0203
300.0492
300.0471
300.0491
300.0471
300.021
300.1245
300.1202
300.0203
300.1246
300.0209
300.0203
300.0216
300.0224
300.1302
300.1251
300.0224
300.0216
300.1249
300.0497
300.052
300.052
300.0497
300.0216
300.1302
300.0224
300.125
300.0224
300.1249
300.0216
300.0491
300.047
300.0491
300.047
300.0209
300.1244
300.0202
300.1198
300.0209
300.1242
300.0202
300.049
300.047
300.049
300.047
300.0209
300.1243
300.1198
300.0202
300.1242
300.0209
300.0202
300.0216
300.0224
300.1305
300.125
300.0224
300.0216
300.1252
300.0497
300.052
300.052
300.0497
300.0216
300.1305
300.0224
300.1252
300.0224
300.1252
300.0216
300.049
300.047
300.049
300.047
300.0209
300.1244
300.0202
300.12
300.0209
300.1245
300.0202
300.049
300.047
300.049
300.047
300.0209
300.1245
300.12
300.0202
300.1245
300.0209
300.0202
300.0216
300.0224
300.1306
300.1252
300.0224
300.0216
300.1253
300.0497
300.052
300.052
300.0497
300.0216
300.1306
300.0224
300.1254
300.0224
300.1253
300.0216
300.049
300.047
300.049
300.047
300.0209
300.1245
300.0202
300.1201
300.0209
300.1246
300.0202
300.049
300.0471
300.0491
300.047
300.0209
300.1247
300.1201
300.0203
300.1246
300.0209
300.0202
300.0217
300.0224
300.1308
300.1254
300.0224
300.0216
300.1256
300.05
300.0525
300.0522
300.0503
300.0218
300.1309
300.0226
300.1269
300.0225
300.1257
300.0219
300.0492
300.0471
300.0491
300.0473
300.021
300.1247
300.0203
300.1207
300.0209
300.125
300.0203
300.0493
300.0478
300.0497
300.0473
300.0211
300.1263
300.1208
300.0206
300.1251
300.0212
300.0204
300.024
300.023
300.1381
300.1272
300.0247
300.0223
300.1334
300.0585
300.1707
300.0608
300.1659
300.0344
300.141
300.1599
300.2527
300.0354
300.1362
300.1556
300.0531
300.0481
300.0499
300.0512
300.0233
300.1266
300.021
300.1287
300.0216
300.1327
300.0226
300.0578
300.1608
300.1652
300.0558
300.0335
300.2499
300.1315
300.1509
300.1356
300.1549
300.0326
300.1456
300.0534
300.1501
300.0515
300.1367
300.2331
300.0301
300.1249
300.1409
300.2261
300.0293
300.1449
300.0491
300.0509
300.1405
300.1361
300.1244
300.2191
300.0277
300.2245
300.0284
300.132
300.0196
300.0215
300.1215
300.1227
300.0202
300.0209
300.1178
300.0452
300.0467
300.0469
300.0449
300.0193
300.1212
300.0198
300.1163
300.0199
300.1175
300.0192
300.0449
300.0456
300.0472
300.0433
300.0191
300.1222
300.0197
300.114
300.0203
300.1173
300.0185
300.0447
300.0429
300.0444
300.0432
300.0188
300.1158
300.1138
300.0182
300.117
300.0187
300.0183
300.0191
300.0197
300.1196
300.1162
300.0197
300.0191
300.1158
300.0447
300.0465
300.0465
300.0447
300.0191
300.1196
300.0196
300.1156
300.0197
300.1158
300.019
300.0442
300.0428
300.0443
300.0427
300.0186
300.1157
300.0181
300.112
300.0186
300.1153
300.018
300.0442
300.0426
300.0442
300.0427
300.0185
300.1151
300.1119
300.018
300.1153
300.0185
300.018
300.019
300.0196
300.1192
300.1155
300.0196
300.019
300.1154
300.0446
300.0464
300.0464
300.0446
300.019
300.1192
300.0196
300.1154
300.0196
300.1154
300.019
300.0441
300.0426
300.0441
300.0426
300.0185
300.115
300.018
300.1115
300.0185
300.1149
300.018
300.0441
300.0425
300.0441
300.0426
300.0185
300.1149
300.1115
300.0179
300.1149
300.0185
300.018
300.019
300.0196
300.1194
300.1154
300.0196
300.019
300.1155
300.0446
300.0464
300.0464
300.0446
300.019
300.1194
300.0196
300.1156
300.0196
300.1155
300.019
300.0441
300.0425
300.0441
300.0425
300.0185
300.1149
300.0179
300.1116
300.0185
300.115
300.0179
300.0441
300.0426
300.0441
300.0425
300.0185
300.1151
300.1116
300.018
300.115
300.0185
300.018
300.019
300.0196
300.1195
300.1156
300.0196
300.019
300.1157
300.0447
300.0465
300.0464
300.0447
300.019
300.1196
300.0196
300.1159
300.0196
300.1157
300.0191
300.0441
300.0426
300.0441
300.0426
300.0185
300.1151
300.018
300.1119
300.0185
300.1152
300.018
300.0442
300.0427
300.0442
300.0426
300.0185
300.1154
300.1119
300.018
300.1152
300.0185
300.018
300.0192
300.0197
300.1201
300.116
300.0197
300.0191
300.1164
300.0451
300.0473
300.0468
300.0456
300.0193
300.1202
300.02
300.1181
300.0198
300.1166
300.0195
300.0445
300.0428
300.0443
300.043
300.0186
300.1155
300.0181
300.1128
300.0186
300.116
300.0182
300.0446
300.0437
300.0452
300.0432
300.0188
300.1176
300.1129
300.0185
300.1161
300.0189
300.0183
300.0214
300.0204
300.1282
300.1185
300.022
300.0198
300.1247
300.0534
300.1602
300.0552
300.1561
300.031
300.1309
300.1503
300.2358
300.0318
300.1274
300.1465
300.0485
300.044
300.0454
300.047
300.0209
300.118
300.0189
300.1212
300.0193
300.1243
300.0204
300.0528
300.1517
300.1555
300.0512
300.0303
300.2359
300.1238
300.1425
300.1269
300.146
300.0296
300.136
300.0486
300.1399
300.047
300.1277
300.2182
300.0269
300.1174
300.1315
300.2133
300.0262
300.1354
300.0451
300.0465
300.1316
300.1272
300.117
300.2059
300.0249
300.2148
300.0256
300.1237
300.0176
300.0192
300.1136
300.1154
300.018
300.0187
300.1107
300.0413
300.0424
300.0427
300.041
300.0173
300.1133
300.0177
300.1092
300.0178
300.1104
300.0172
300.0411
300.0419
300.0432
300.0399
300.0171
300.115
300.0178
300.1077
300.0183
300.1103
300.0167
300.0409
300.0394
300.0406
300.0397
300.0169
300.1088
300.1074
300.0164
300.11
300.0168
300.0165
300.0171
300.0176
300.1115
300.1091
300.0176
300.0171
300.1086
300.0408
300.0421
300.0422
300.0408
300.0171
300.1115
300.0175
300.1083
300.0175
300.1085
300.017
300.0404
300.0393
300.0406
300.0392
300.0167
300.1087
300.0163
300.1055
300.0167
300.1082
300.0162
300.0404
300.0391
300.0403
300.0392
300.0166
300.1079
300.1055
300.0162
300.1081
300.0166
300.0162
300.017
300.0175
300.1111
300.1083
300.0175
300.017
300.1081
300.0407
300.0421
300.0421
300.0407
300.017
300.1111
300.0175
300.1081
300.0175
300.1081
300.017
300.0403
300.0391
300.0403
300.0391
300.0166
300.1079
300.0162
300.105
300.0166
300.1077
300.0162
300.0403
300.039
300.0403
300.0391
300.0166
300.1077
300.105
300.0162
300.1077
300.0166
300.0162
300.017
300.0175
300.1112
300.1081
300.0175
300.017
300.1082
300.0407
300.0421
300.0421
300.0407
300.017
300.1112
300.0175
300.1083
300.0175
300.1082
300.017
300.0403
300.0391
300.0403
300.0391
300.0166
300.1077
300.0162
300.1051
300.0166
300.1078
300.0162
300.0403
300.0391
300.0403
300.0391
300.0166
300.1079
300.1051
300.0162
300.1078
300.0166
300.0162
300.017
300.0175
300.1114
300.1083
300.0175
300.017
300.1084
300.0408
300.0423
300.0422
300.041
300.0171
300.1114
300.0176
300.1088
300.0175
300.1085
300.0171
300.0404
300.0391
300.0403
300.0392
300.0166
300.1079
300.0162
300.1054
300.0166
300.1081
300.0162
300.0404
300.0394
300.0406
300.0392
300.0166
300.1084
300.1054
300.0163
300.1081
300.0167
300.0162
300.0173
300.0176
300.1123
300.1089
300.0177
300.0172
300.1095
300.0414
300.0433
300.0427
300.042
300.0174
300.1125
300.018
300.1114
300.0178
300.1097
300.0176
300.0409
300.0394
300.0406
300.0397
300.0168
300.1085
300.0163
300.1066
300.0167
300.1091
300.0164
300.041
300.0405
300.0416
300.0399
300.017
300.111
300.1067
300.0168
300.1093
300.0172
300.0166
300.0194
300.0184
300.1208
300.1118
300.0199
300.018
300.118
300.0492
300.1512
300.0507
300.1477
300.0283
300.1234
300.142
300.2246
300.0289
300.1206
300.1387
300.0448
300.0408
300.0419
300.0435
300.019
300.1115
300.0171
300.1151
300.0175
300.1177
300.0185
300.0488
300.1439
300.1472
300.0474
300.0277
300.2244
300.1175
300.1352
300.1202
300.1383
300.0271
300.1276
300.0446
300.1311
300.0433
300.1198
300.2059
300.0243
300.1111
300.1232
300.2005
300.0237
300.1271
300.0416
300.0429
300.1238
300.1194
300.1107
300.1964
300.0226
300.2003
300.0231
300.1162
300.0159
300.0174
300.1073
300.1092
300.0163
300.0169
300.1048
300.0382
300.039
300.0393
300.0378
300.0157
300.107
300.016
300.1033
300.0161
300.1046
300.0156
300.038
300.0387
300.0399
300.0369
300.0155
300.1088
300.0161
300.1022
300.0165
300.1045
300.0152
300.0378
300.0364
300.0375
300.0367
300.0153
300.103
300.102
300.0149
300.1042
300.0152
300.015
300.0155
300.0159
300.1051
300.1032
300.0158
300.0155
300.1027
300.0376
300.0387
300.0388
300.0376
300.0154
300.1051
300.0158
300.1024
300.0158
300.1026
300.0154
300.0373
300.0364
300.0374
300.0362
300.0151
300.1029
300.0148
300.1001
300.0151
300.1023
300.0147
300.0373
300.0361
300.0372
300.0362
300.0151
300.102
300.1
300.0147
300.1023
300.015
300.0147
300.0154
300.0158
300.1047
300.1023
300.0158
300.0154
300.1022
300.0375
300.0387
300.0387
300.0375
300.0154
300.1047
300.0158
300.1022
300.0158
300.1022
300.0154
300.0372
300.0361
300.0372
300.0361
300.015
300.102
300.0147
300.0996
300.015
300.1019
300.0147
300.0372
300.0361
300.0372
300.0361
300.015
300.1018
300.0996
300.0146
300.1019
300.015
300.0147
300.0154
300.0158
300.1047
300.1022
300.0158
300.0154
300.1022
300.0375
300.0387
300.0387
300.0376
300.0154
300.1047
300.0158
300.1024
300.0158
300.1022
300.0154
300.0372
300.0361
300.0372
300.0361
300.015
300.1018
300.0146
300.0996
300.015
300.1019
300.0147
300.0372
300.0362
300.0372
300.0361
300.015
300.102
300.0996
300.0147
300.1019
300.015
300.0147
300.0154
300.0158
300.105
300.1024
300.0158
300.0154
300.1026
300.0377
300.039
300.0388
300.0379
300.0155
300.105
300.0159
300.103
300.0158
300.1026
300.0155
300.0373
300.0362
300.0373
300.0363
300.0151
300.102
300.0147
300.1
300.015
300.1022
300.0147
300.0374
300.0365
300.0375
300.0363
300.0151
300.1027
300.1
300.0148
300.1023
300.0152
300.0148
300.0157
300.016
300.1062
300.1031
300.016
300.0156
300.1039
300.0384
300.0401
300.0395
300.039
300.0158
300.1064
300.0164
300.1059
300.0162
300.104
300.016
300.038
300.0366
300.0376
300.0369
300.0153
300.1028
300.0149
300.1014
300.0152
300.1036
300.015
300.0381
300.0377
300.0387
300.0371
300.0155
300.1056
300.1015
300.0153
300.1037
300.0157
300.0151
300.0177
300.0168
300.1148
300.1063
300.0181
300.0164
300.1124
300.0457
300.1435
300.047
300.1404
300.0259
300.1172
300.1348
300.217
300.0265
300.1148
300.1319
300.0416
300.038
300.039
300.0405
300.0173
300.106
300.0157
300.1098
300.016
300.1121
300.017
300.0453
300.137
300.14
300.0441
300.0254
300.2171
300.1121
300.1288
300.1144
300.1315
300.0249
300.12
300.0412
300.1233
300.04
300.1127
300.1949
300.022
300.1055
300.1158
300.1906
300.0215
300.1196
300.0385
300.0396
300.1164
300.1123
300.1052
300.1861
300.0205
300.1902
300.021
300.1094
300.0145
300.0157
300.1019
300.1038
300.0148
300.0154
300.0998
300.0354
300.0361
300.0364
300.0351
300.0143
300.1016
300.0145
300.0983
300.0146
300.0995
300.0142
300.0352
300.0359
300.0369
300.0343
300.0141
300.1035
300.0147
300.0974
300.015
300.0995
300.0138
300.0351
300.0338
300.0348
300.0341
300.0139
300.098
300.0972
300.0135
300.0992
300.0138
300.0136
300.0141
300.0144
300.0998
300.0982
300.0144
300.0141
300.0976
300.0349
300.0358
300.0359
300.0348
300.014
300.0997
300.0143
300.0973
300.0144
300.0976
300.014
300.0346
300.0337
300.0347
300.0336
300.0137
300.0979
300.0135
300.0953
300.0138
300.0973
300.0134
300.0346
300.0335
300.0345
300.0336
300.0137
300.097
300.0952
300.0134
300.0973
300.0137
300.0134
300.014
300.0143
300.0993
300.0972
300.0143
300.014
300.0971
300.0348
300.0358
300.0358
300.0348
300.014
300.0992
300.0143
300.0971
300.0143
300.0971
300.014
300.0345
300.0335
300.0345
300.0335
300.0137
300.0969
300.0133
300.0948
300.0137
300.0968
300.0133
300.0345
300.0335
300.0345
300.0335
300.0137
300.0968
300.0948
300.0133
300.0968
300.0136
300.0133
300.014
300.0143
300.0993
300.0971
300.0143
300.014
300.0971
300.0348
300.0359
300.0358
300.0349
300.014
300.0993
300.0143
300.0973
300.0143
300.0971
300.014
300.0345
300.0335
300.0345
300.0335
300.0137
300.0968
300.0133
300.0948
300.0137
300.0968
300.0133
300.0345
300.0336
300.0346
300.0336
300.0137
300.097
300.0948
300.0134
300.0968
300.0137
300.0134
300.0141
300.0144
300.0996
300.0973
300.0144
300.014
300.0975
300.035
300.0362
300.036
300.0352
300.0141
300.0997
300.0145
300.098
300.0144
300.0976
300.0141
300.0347
300.0336
300.0346
300.0338
300.0137
300.097
300.0134
300.0952
300.0137
300.0972
300.0134
300.0347
300.034
300.0349
300.0338
300.0138
300.0977
300.0953
300.0135
300.0973
300.0138
300.0135
300.0143
300.0145
300.1011
300.0981
300.0146
300.0142
300.099
300.0358
300.0374
300.0368
300.0364
300.0145
300.1012
300.015
300.1011
300.0148
300.0992
300.0147
300.0354
300.0341
300.035
300.0344
300.014
300.0978
300.0136
300.0968
300.0139
300.0987
300.0137
300.0355
300.0352
300.0361
300.0346
300.0141
300.1008
300.097
300.014
300.0989
300.0143
300.0138
300.0162
300.0153
300.1095
300.1016
300.0166
300.015
300.1074
300.0426
300.1366
300.0437
300.1338
300.0239
300.1118
300.1284
300.2034
300.0244
300.1096
300.1258
300.0388
300.0355
300.0364
300.0378
300.0159
300.1013
300.0144
300.1051
300.0147
300.1071
300.0155
300.0422
300.1307
300.1334
300.0412
300.0234
300.2029
300.1073
300.1229
300.1093
300.1254
300.0229
300.1131
300.0381
300.116
300.037
300.1062
300.1851
300.02
300.1005
300.109
300.1812
300.0195
300.1127
300.0356
300.0367
300.1099
300.1058
300.1002
300.1776
300.0186
300.1811
300.0191
300.1032
300.0132
300.0143
300.0971
300.0989
300.0135
300.014
300.0952
300.0329
300.0335
300.0338
300.0326
300.013
300.0969
300.0132
300.0938
300.0133
300.095
300.0129
300.0327
300.0333
300.0343
300.0318
300.0129
300.0987
300.0133
300.0931
300.0137
300.0949
300.0126
300.0326
300.0314
300.0323
300.0317
300.0127
300.0935
300.0928
300.0123
300.0947
300.0126
300.0124
300.0128
300.0132
300.095
300.0937
300.0131
300.0129
300.0931
300.0324
300.0332
300.0333
300.0323
300.0128
300.095
300.0131
300.0928
300.0131
300.0931
300.0128
300.0321
300.0314
300.0322
300.0312
300.0125
300.0934
300.0123
300.091
300.0126
300.0928
300.0122
300.0321
300.0312
300.032
300.0312
300.0125
300.0925
300.091
300.0122
300.0928
300.0125
300.0122
300.0127
300.013
300.0945
300.0927
300.013
300.0127
300.0926
300.0323
300.0332
300.0332
300.0323
300.0127
300.0945
300.013
300.0926
300.013
300.0926
300.0127
300.032
300.0312
300.032
300.0312
300.0124
300.0925
300.0122
300.0905
300.0125
300.0923
300.0122
300.032
300.0312
300.032
300.0312
300.0124
300.0923
300.0905
300.0122
300.0923
300.0124
300.0122
300.0127
300.013
300.0945
300.0926
300.013
300.0127
300.0926
300.0324
300.0333
300.0333
300.0324
300.0128
300.0945
300.0131
300.0928
300.0131
300.0926
300.0128
300.0321
300.0312
300.032
300.0312
300.0125
300.0923
300.0122
300.0906
300.0125
300.0924
300.0122
300.0321
300.0313
300.0322
300.0312
300.0125
300.0925
300.0906
300.0122
300.0924
300.0125
300.0122
300.0128
300.0131
300.095
300.0928
300.0131
300.0128
300.0931
300.0326
300.0337
300.0335
300.0328
300.0129
300.095
300.0132
300.0937
300.0132
300.0931
300.0129
300.0323
300.0313
300.0322
300.0315
300.0125
300.0926
300.0122
300.091
300.0125
300.0928
300.0123
300.0324
300.0317
300.0326
300.0315
300.0126
300.0934
300.0911
300.0124
300.0929
300.0127
300.0123
300.0131
300.0133
300.0965
300.0938
300.0134
300.013
300.0947
300.0334
300.0349
300.0343
300.034
300.0132
300.0967
300.0137
300.0968
300.0135
300.0949
300.0134
300.033
300.0318
300.0327
300.0322
300.0128
300.0935
300.0125
300.0927
300.0127
300.0945
300.0126
300.0332
300.0329
300.0337
300.0323
300.013
300.0966
300.0929
300.0129
300.0946
300.0131
300.0127
300.0149
300.0141
300.1048
300.0973
300.0152
300.0138
300.1029
300.0398
300.1303
300.0408
300.1277
300.022
300.107
300.1226
300.1967
300.0224
300.105
300.1201
300.0362
300.0332
300.034
300.0353
300.0146
300.097
300.0132
300.1008
300.0135
300.1026
300.0143
300.0394
300.1248
300.1273
300.0384
300.0215
300.196
300.1029
300.1174
300.1048
300.1198
300.0211
300.1067
300.0353
300.1095
300.0343
300.1002
300.177
300.0182
300.096
300.1028
300.1731
300.0177
300.1063
300.033
300.034
300.1038
300.0999
300.0957
300.168
300.0169
300.1727
300.0173
300.0975
300.012
300.013
300.0928
300.0945
300.0123
300.0127
300.0911
300.0306
300.0311
300.0314
300.0303
300.0119
300.0926
300.0121
300.0897
300.0121
300.0908
300.0118
300.0304
300.0309
300.0318
300.0296
300.0118
300.0943
300.0121
300.0891
300.0124
300.0908
300.0115
300.0303
300.0292
300.03
300.0295
300.0116
300.0895
300.0889
300.0113
300.0906
300.0115
300.0113
300.0117
300.012
300.0908
300.0896
300.012
300.0117
300.0891
300.0301
300.0309
300.031
300.0301
300.0117
300.0907
300.0119
300.0887
300.0119
300.089
300.0116
300.0299
300.0292
300.03
300.0291
300.0114
300.0894
300.0112
300.0872
300.0115
300.0888
300.0112
300.0298
300.029
300.0298
300.029
300.0114
300.0885
300.0871
300.0111
300.0888
300.0114
300.0111
300.0116
300.0119
300.0903
300.0887
300.0119
300.0116
300.0886
300.03
300.0309
300.0309
300.0301
300.0116
300.0903
300.0119
300.0885
300.0119
300.0885
300.0116
300.0298
300.029
300.0298
300.029
300.0114
300.0884
300.0111
300.0867
300.0114
300.0883
300.0111
300.0298
300.029
300.0298
300.029
300.0114
300.0883
300.0867
300.0111
300.0883
300.0114
300.0111
300.0116
300.0119
300.0903
300.0885
300.0119
300.0116
300.0886
300.0301
300.031
300.031
300.0302
300.0117
300.0903
300.0119
300.0888
300.0119
300.0886
300.0117
300.0299
300.029
300.0298
300.0291
300.0114
300.0883
300.0111
300.0867
300.0114
300.0883
300.0111
300.0299
300.0292
300.03
300.0291
300.0114
300.0885
300.0867
300.0112
300.0884
300.0114
300.0111
300.0117
300.012
300.0908
300.0888
300.012
300.0117
300.0891
300.0304
300.0315
300.0312
300.0306
300.0118
300.0908
300.0121
300.0897
300.012
300.0892
300.0118
300.0301
300.0292
300.03
300.0293
300.0115
300.0886
300.0112
300.0873
300.0114
300.0889
300.0112
300.0302
300.0296
300.0304
300.0294
300.0115
300.0895
300.0873
300.0113
300.0889
300.0116
300.0113
300.012
300.0122
300.0925
300.0898
300.0123
300.0119
300.0908
300.0312
300.0326
300.032
300.0318
300.0121
300.0927
300.0126
300.0929
300.0124
300.091
300.0123
300.0308
300.0297
300.0305
300.0301
300.0118
300.0896
300.0114
300.089
300.0117
300.0906
300.0115
300.031
300.0308
300.0316
300.0302
300.0119
300.0927
300.0892
300.0118
300.0908
300.0121
300.0116
300.0137
300.0129
300.1006
300.0934
300.014
300.0126
300.0988
300.0372
300.1245
300.0381
300.1221
300.0203
300.1027
300.1171
300.1925
300.0207
300.1009
300.1149
300.0339
300.031
300.0318
300.033
300.0134
300.0931
300.0121
300.0969
300.0124