/*--------------------------------*- C++ -*----------------------------------*\
| =========                 |                                                 |
| \\      /  F ield         | OpenFOAM: The Open Source CFD Toolbox           |
|  \\    /   O peration     | Version:  2506                                  |
|   \\  /    A nd           | Website:  www.openfoam.com                      |
|    \\/     M anipulation  |                                                 |
\*---------------------------------------------------------------------------*/
FoamFile
{
    version     2.0;
    format      ascii;
    arch        "LSB;label=32;scalar=64";
    class       volScalarField;
    location    "2000/solid";
    object      damage;
}
// * * * * * * * * * * * * * * * * * * * * * * * * * * * * * * * * * * * * * //

dimensions      [0 0 0 0 0 0 0];

internalField   nonuniform List<scalar> 
2304
(
0.4615768
0.467142
0.4683857
0.4685171
0.4682042
0.4663675
0.4668891
0.4728624
0.4741201
0.4742634
0.4739824
0.4721679
0.4680743
0.474037
0.4753081
0.4754588
0.4751818
0.4733694
0.4682227
0.4741777
0.4754512
0.4756035
0.4753267
0.4735158
0.4679371
0.4739039
0.475173
0.4753224
0.475045
0.4732314
0.466102
0.4720625
0.4733139
0.4734542
0.4731695
0.4713545
0.4638764
0.4687046
0.468503
0.4741454
0.4695158
0.4706072
0.4749662
0.4760533
0.4707407
0.4708746
0.4761846
0.4763201
0.4708672
0.4706976
0.4763166
0.4761685
0.4705585
0.469508
0.47604
0.4750232
0.4687432
0.4641659
0.4742615
0.4689252
0.4692717
0.4749182
0.470312
0.475939
0.4757418
0.4768324
0.4767645
0.4778608
0.4769641
0.4771011
0.477994
0.4781346
0.4770984
0.4769531
0.478133
0.477991
0.4768257
0.4758109
0.4778645
0.4768527
0.4750489
0.4697161
0.4760924
0.4707903
0.470444
0.4760645
0.4705903
0.4762009
0.4768898
0.4779869
0.4770257
0.4781236
0.4781204
0.4782619
0.4782575
0.4784
0.4782604
0.4781188
0.4783988
0.4782575
0.4779923
0.4769811
0.4781311
0.4771207
0.4762215
0.4709279
0.4763623
0.4710809
0.4705901
0.4762007
0.4704423
0.4760631
0.4770255
0.4781234
0.4768885
0.4779856
0.4782574
0.4783999
0.4781191
0.4782605
0.4783986
0.4782573
0.4782591
0.4781174
0.4781309
0.4771205
0.4779909
0.4769794
0.4763621
0.4710804
0.4762196
0.4709243
0.4703095
0.475937
0.4692657
0.474913
0.4767625
0.4778589
0.4757368
0.4768274
0.4779921
0.4781327
0.4769592
0.4770962
0.4781311
0.4779891
0.4770935
0.4769481
0.4778626
0.4768504
0.4768206
0.4758054
0.4760898
0.4707856
0.4750429
0.4697068
0.4684946
0.4741381
0.4638524
0.4686832
0.4749591
0.4760464
0.4694948
0.4705863
0.4761777
0.4763132
0.4707198
0.4708536
0.4763097
0.4761615
0.4708463
0.4706766
0.4760329
0.4750156
0.4705374
0.4694864
0.4742535
0.4689135
0.4687214
0.4641428
0.4663174
0.4661105
0.4712289
0.4682488
0.4720699
0.4731839
0.4685241
0.4733211
0.4734645
0.468346
0.4734614
0.4733104
0.4671428
0.4731769
0.4721403
0.4618665
0.4713628
0.4665449
0.4720174
0.4679395
0.4730572
0.4739819
0.4739059
0.4750345
0.4742657
0.475175
0.4753253
0.474115
0.4753244
0.4751791
0.4729466
0.4750471
0.4740122
0.4673495
0.473234
0.4684395
0.473188
0.4682229
0.4733289
0.4751672
0.4741779
0.4753097
0.4754596
0.4754514
0.4756041
0.4753138
0.4756037
0.4754591
0.4741471
0.4753269
0.4742928
0.4685813
0.4735161
0.4687385
0.4733288
0.4680725
0.4731866
0.4753095
0.4740356
0.4751658
0.475604
0.4753067
0.4754582
0.4754589
0.4754574
0.4753124
0.4742926
0.4751803
0.4741453
0.468738
0.4733674
0.4685777
0.4730552
0.4668829
0.4720121
0.4750326
0.4728572
0.4739768
0.4753233
0.474115
0.4742605
0.4751771
0.4742583
0.4741098
0.4740098
0.4739771
0.4729409
0.4684348
0.4721617
0.4673402
0.4712213
0.4615525
0.4662948
0.4731766
0.4671197
0.4682266
0.4734572
0.4683635
0.4685018
0.473303
0.4684948
0.4683236
0.4721324
0.4681818
0.46712
0.4665331
0.4663444
0.461842
0.4679527
0.4636845
0.4657382
0.4656599
0.4723509
0.4694889
0.4700258
0.4718151
0.4731153
0.4707204
0.4707973
0.4730393
0.4731286
0.4708389
0.4708074
0.4731582
0.47263
0.4705147
0.4702944
0.4728458
0.4698509
0.4686655
0.4675186
0.4710118
0.4721089
0.4692046
0.4716004
0.4697158
0.4765929
0.4755423
0.476082
0.4760525
0.4773557
0.4767678
0.4768433
0.4772799
0.4773788
0.4768909
0.4768648
0.4774044
0.476905
0.4765984
0.4763889
0.477114
0.4741211
0.4747772
0.4736032
0.4752943
0.4728586
0.4703955
0.4727784
0.4704776
0.4773306
0.4767127
0.4772535
0.4767899
0.4780974
0.477943
0.4780196
0.4780206
0.4781234
0.4780704
0.4780453
0.4781484
0.4776511
0.4777817
0.477573
0.4778597
0.4748773
0.4759659
0.4747972
0.4760449
0.4729034
0.4705454
0.4729243
0.4705238
0.4773734
0.4768527
0.4773932
0.4768328
0.4781405
0.4780836
0.4781605
0.4780637
0.4781668
0.4782118
0.4781868
0.4781917
0.4776944
0.4779232
0.4777145
0.4779031
0.4749216
0.4761091
0.4749425
0.4760886
0.4724341
0.4702582
0.4726443
0.4700447
0.4769166
0.4765825
0.4771234
0.4763758
0.4776808
0.4778123
0.4778887
0.4776046
0.477705
0.4779389
0.4779138
0.4777303
0.477232
0.47765
0.4774412
0.4774409
0.4744496
0.4758324
0.4746618
0.4756218
0.46964
0.4684174
0.4708136
0.4672605
0.4740846
0.4747463
0.475285
0.4735476
0.4748456
0.4759702
0.4760456
0.4747702
0.4748621
0.4760917
0.4760648
0.4748901
0.4743746
0.4757953
0.4755846
0.4745872
0.4715902
0.4739711
0.4727973
0.4727597
0.4634406
0.4633821
0.4654166
0.467681
0.4692052
0.4697444
0.468466
0.4704462
0.4705262
0.468489
0.4705798
0.4705539
0.4679874
0.4702793
0.4700672
0.4652289
0.4684576
0.4673099
0.4689984
0.4673978
0.4695038
0.4734099
0.4733721
0.4739213
0.4742019
0.4746349
0.4747172
0.4742416
0.4747807
0.4747594
0.4737758
0.4745017
0.4742954
0.4710083
0.4726873
0.471528
0.470171
0.4681557
0.4702503
0.4745885
0.4741147
0.4746663
0.4753921
0.4753871
0.4754713
0.4754384
0.4755386
0.4755182
0.4749757
0.4752617
0.4750556
0.4722137
0.4734501
0.4722954
0.4703153
0.4682016
0.4702949
0.4747296
0.4741581
0.4747099
0.4755357
0.4754313
0.4755157
0.4755833
0.4755834
0.4755631
0.4751207
0.4753066
0.4751004
0.4723622
0.4734952
0.4723411
0.4700364
0.4677254
0.4698282
0.474455
0.4736973
0.4742477
0.4752565
0.4749638
0.4750468
0.4753018
0.4751116
0.4750908
0.4748389
0.4748337
0.4746274
0.4720741
0.473019
0.4718603
0.4682109
0.464952
0.4670497
0.4726074
0.4708777
0.4714196
0.4733948
0.4721228
0.4722031
0.4734315
0.4722597
0.4722357
0.4729622
0.4719688
0.4717597
0.4701958
0.4701522
0.4689974
0.4697474
0.4686668
0.4674438
0.4709904
0.4696511
0.468426
0.4672722
0.4708218
0.471471
0.4739193
0.4727276
0.4726542
0.4690097
0.4646102
0.4658476
0.4657842
0.466614
0.4665445
0.4681914
0.4708195
0.4694823
0.467507
0.471208
0.468282
0.4720413
0.4699898
0.4707421
0.4692692
0.4673671
0.4710715
0.4681314
0.4719005
0.4699164
0.4725795
0.4749915
0.4729716
0.4729075
0.4738138
0.4737496
0.4717412
0.4726936
0.4705878
0.470371
0.4729085
0.4740944
0.4747538
0.4735576
0.4752923
0.4744363
0.4758479
0.4746501
0.4756344
0.4733816
0.4702932
0.4700479
0.47202
0.4708244
0.4728527
0.47255
0.4737202
0.4713812
0.4703909
0.4731039
0.4711662
0.4739327
0.4728901
0.4751592
0.4758113
0.4737882
0.4754994
0.4746296
0.4763424
0.4743193
0.4754971
0.4768921
0.4748722
0.4758399
0.4757085
0.4766807
0.4746591
0.4731544
0.470849
0.4708367
0.4731671
0.4748554
0.4759775
0.47478
0.4760528
0.4748945
0.476106
0.4749078
0.4760921
0.4741384
0.4715131
0.470819
0.4732356
0.4715899
0.4740626
0.4733128
0.474178
0.4716429
0.4708602
0.4733689
0.4716297
0.4741919
0.4733538
0.475913
0.477021
0.4750033
0.4762619
0.4758376
0.4770965
0.4750804
0.4759527
0.4771516
0.4751374
0.4763036
0.4759673
0.4771365
0.4751216
0.473074
0.4706584
0.4707503
0.4729853
0.474872
0.476099
0.4749
0.4760722
0.4748196
0.4759371
0.4747337
0.4760213
0.4741579
0.4716343
0.470839
0.4733631
0.4716048
0.474185
0.4733373
0.4741066
0.4714611
0.4707855
0.4732034
0.4715501
0.4740219
0.4732871
0.4759364
0.4771469
0.475133
0.4762939
0.4759617
0.4771229
0.475109
0.4758874
0.4769954
0.4749803
0.4762476
0.4758056
0.4770754
0.4750611
0.4722971
0.4694423
0.4699563
0.4717872
0.4743849
0.4758028
0.4745974
0.4755923
0.4740552
0.4747572
0.4735474
0.4752643
0.4736776
0.4713211
0.470344
0.4730696
0.4711054
0.4738874
0.472861
0.4733525
0.4702668
0.470013
0.4720385
0.4707732
0.4728527
0.4725369
0.4754685
0.4768663
0.4748498
0.475837
0.4756745
0.4766624
0.4746448
0.4751471
0.4758467
0.4738284
0.4755182
0.47465
0.4763428
0.4743243
0.4681736
0.4639591
0.4659197
0.4659906
0.4716022
0.4739797
0.472771
0.4728067
0.469908
0.4688346
0.4676498
0.4711053
0.4709454
0.469501
0.4676166
0.471278
0.4683721
0.4720912
0.4701356
0.4692363
0.4648875
0.4660495
0.4661287
0.4668004
0.4668779
0.468434
0.4727345
0.4750842
0.4730677
0.4731079
0.4738882
0.4739266
0.4719179
0.4710038
0.4696786
0.4677579
0.4713784
0.468511
0.4721883
0.4701955
0.4739446
0.4747053
0.4734364
0.4752146
0.4724374
0.4702609
0.4700483
0.4726468
0.4742713
0.4757471
0.4755408
0.4744785
0.4731675
0.4700384
0.4718378
0.4697761
0.4726673
0.4705435
0.4723372
0.4750186
0.4757645
0.4736767
0.4754181
0.4745192
0.4762647
0.4741755
0.4734899
0.4710806
0.4701033
0.4728634
0.4708714
0.4736947
0.4726592
0.4753387
0.4767857
0.4757377
0.4746974
0.4765843
0.4755411
0.4744954
0.4769359
0.4766381
0.4764245
0.4771499
0.4769195
0.4765847
0.4763788
0.4771256
0.477263
0.4776839
0.4774773
0.4774693
0.4776212
0.4765866
0.4762767
0.476243
0.4771191
0.4770879
0.476779
0.4779607
0.4776698
0.4766183
0.4773363
0.4774581
0.4781728
0.4771215
0.4779414
0.4776088
0.4765632
0.4773015
0.4774077
0.4781427
0.4770998
0.4782813
0.4786958
0.4776582
0.4776451
0.4784939
0.478483
0.4774429
0.4773956
0.4768972
0.4768829
0.4774103
0.4776837
0.4778145
0.4776076
0.4778909
0.477724
0.4779466
0.477739
0.4779314
0.4783784
0.4777989
0.4770418
0.4774685
0.4778746
0.4783024
0.4775467
0.4784192
0.4779307
0.477084
0.477607
0.4779151
0.4784353
0.4775894
0.4787001
0.478826
0.477791
0.478073
0.4786238
0.4789027
0.4778697
0.4787412
0.4789607
0.4779307
0.4781163
0.4787576
0.4789441
0.4779127
0.4773293
0.4767316
0.4768148
0.4772467
0.477708
0.4779412
0.4777334
0.477916
0.4776588
0.4777847
0.4775765
0.477867
0.4784088
0.4779266
0.4770765
0.4776048
0.4779033
0.4784316
0.4775834
0.478363
0.4777779
0.4770311
0.4774612
0.4778569
0.4782846
0.4775386
0.4787319
0.4789576
0.4779288
0.4781122
0.4787543
0.4789354
0.4779078
0.4786863
0.478812
0.4777863
0.478068
0.4786083
0.4788899
0.4778633
0.4765783
0.4755551
0.4760618
0.4760719
0.4772352
0.4776523
0.477444
0.4774436
0.4769087
0.4766116
0.4764027
0.4771173
0.477955
0.47765
0.4766236
0.4773343
0.4774471
0.4781573
0.4771328
0.4776368
0.4766329
0.4763056
0.4763208
0.4771285
0.4771417
0.4768152
0.4782793
0.4786852
0.4776597
0.4776635
0.4784812
0.4784834
0.4774584
0.4779614
0.4776714
0.476647
0.4773463
0.4774667
0.4781658
0.477141
0.4724213
0.469633
0.4719013
0.4701572
0.474454
0.4758354
0.4756258
0.4746653
0.4727574
0.4707162
0.4704981
0.4729715
0.4752219
0.4758701
0.4738945
0.4755591
0.4747118
0.4763794
0.4744054
0.4734859
0.4704677
0.4721648
0.4702359
0.4729733
0.4709863
0.4726783
0.4755493
0.4769108
0.475886
0.4749419
0.4767052
0.4757566
0.4747338
0.4738167
0.4715386
0.470574
0.4732211
0.4713232
0.4740271
0.4730099
0.4746866
0.4758755
0.4746081
0.4759532
0.4729041
0.4705456
0.4705246
0.4729246
0.4747311
0.4760167
0.4759971
0.474751
0.4739006
0.4712127
0.4729917
0.4705243
0.4738229
0.4712932
0.4730693
0.4757433
0.4769108
0.4748238
0.4761399
0.4756672
0.476986
0.4748998
0.4739446
0.4713595
0.47057
0.4731327
0.471339
0.4739643
0.4731132
0.4757862
0.4770471
0.4761821
0.4749617
0.4770283
0.4758053
0.4749426
0.4776745
0.4778122
0.4775973
0.4778896
0.477374
0.4768529
0.4768335
0.4773935
0.477718
0.4779527
0.4779332
0.4777375
0.4783422
0.4777335
0.477427
0.476965
0.4782674
0.4778084
0.4775021
0.4786827
0.4788209
0.4777709
0.4780625
0.4786078
0.478896
0.4778462
0.4783841
0.477869
0.4770071
0.4775629
0.4778504
0.4784027
0.4775443
0.4787246
0.4789567
0.4781048
0.4779071
0.478938
0.4787433
0.4778884
0.4781382
0.4780757
0.4780604
0.4781536
0.4781412
0.4780838
0.4780643
0.4781607
0.4781821
0.4782173
0.4781976
0.4782017
0.4791036
0.4789513
0.4781998
0.4781962
0.4790282
0.4790266
0.4782758
0.4791454
0.4790866
0.4782434
0.4783382
0.4790698
0.4791623
0.4783196
0.4791459
0.4790875
0.4782387
0.4783373
0.4790688
0.4791648
0.4783184
0.4791878
0.4792236
0.4783811
0.4783813
0.4792048
0.4792066
0.4783623
0.4780744
0.4779141
0.4779963
0.4779921
0.4781674
0.4782121
0.4781924
0.4781871
0.4781184
0.4780558
0.4780362
0.4781381
0.4791374
0.4790836
0.4782398
0.4783369
0.4790615
0.4791594
0.4783163
0.4790921
0.4789384
0.4781956
0.4781954
0.4790162
0.4790143
0.4782722
0.4791799
0.4792209
0.4783798
0.4783783
0.479202
0.4791989
0.4783593
0.4791347
0.4790758
0.4782384
0.4783343
0.4790569
0.4791536
0.4783152
0.4773249
0.4767413
0.4772468
0.4768197
0.4776951
0.4779234
0.4779038
0.4777147
0.477369
0.4768837
0.476864
0.4773886
0.4786858
0.4788116
0.4777913
0.478069
0.4786099
0.4788875
0.477868
0.4783686
0.4777985
0.4774744
0.4770582
0.4782925
0.4778749
0.4775512
0.4787285
0.4789491
0.478112
0.4779302
0.4789301
0.4787474
0.4779111
0.4784113
0.4779369
0.4771015
0.4776134
0.4779178
0.4784303
0.4775943
0.4731879
0.4708541
0.4731059
0.4709385
0.4749227
0.4761094
0.4760895
0.4749429
0.4732345
0.4710082
0.4709867
0.4732553
0.4759641
0.4770386
0.4750724
0.4762992
0.475886
0.4771157
0.4751512
0.4742392
0.4716748
0.4733542
0.4710118
0.474159
0.4717579
0.473435
0.4760083
0.4771783
0.4763429
0.4752155
0.477159
0.4760279
0.4751957
0.4742846
0.4718264
0.4710596
0.4735012
0.4718053
0.4743048
0.4734808
0.4747304
0.4760165
0.4747508
0.4759964
0.4728573
0.4703936
0.4704763
0.4727766
0.4746854
0.4758739
0.4759521
0.4746063
0.473944
0.4713592
0.4731325
0.4705693
0.4739641
0.4713383
0.4731125
0.4757855
0.4770469
0.4749615
0.4761816
0.4758051
0.4770277
0.474942
0.4738995
0.4712109
0.4705231
0.4729901
0.471292
0.4738212
0.4730682
0.4757423
0.4769093
0.4761389
0.4748223
0.476985
0.4756657
0.4748988
0.4777174
0.4779525
0.4777373
0.4779325
0.4773295
0.4767111
0.4767888
0.4772519
0.4776734
0.4778106
0.4778885
0.4775957
0.4783835
0.4778688
0.4775627
0.4770065
0.4784026
0.4778498
0.4775437
0.4787241
0.4789565
0.4779069
0.4781043
0.4787431
0.4789375
0.4778879
0.4783412
0.4777321
0.476964
0.4774257
0.4778074
0.478266
0.4775012
0.4786817
0.4788194
0.4780616
0.4777695
0.478895
0.4786064
0.4778453
0.4781815
0.478217
0.4782015
0.478197
0.4780962
0.4779414
0.4780195
0.478018
0.4781371
0.4780741
0.4781525
0.4780588
0.4791454
0.4790874
0.4783371
0.4782382
0.4791646
0.4790682
0.4783179
0.4791872
0.4792235
0.4783811
0.4783806
0.4792065
0.4792042
0.4783618
0.4791027
0.4789499
0.4781953
0.4781984
0.4790257
0.4790268
0.4782749
0.4791444
0.4790852
0.4783373
0.478242
0.4791614
0.4790684
0.4783187
0.4781178
0.4780556
0.4781379
0.4780355
0.4781222
0.4780688
0.4781473
0.4780437
0.4780733
0.4779124
0.477991
0.4779947
0.4791794
0.4792207
0.4783782
0.4783793
0.4791987
0.4792014
0.4783587
0.4791341
0.4790757
0.4783341
0.4782379
0.4791535
0.4790563
0.4783147
0.4791364
0.4790822
0.478336
0.4782384
0.4791585
0.4790601
0.4783154
0.4790911
0.4789369
0.4781945
0.4781943
0.4790134
0.4790148
0.4782713
0.4773682
0.4768834
0.4773884
0.4768632
0.4776499
0.47778
0.4778586
0.4775713
0.4773236
0.4767394
0.4768184
0.4772449
0.4787278
0.4789489
0.47793
0.4781115
0.4787472
0.4789295
0.4779105
0.4784106
0.4779367
0.4776132
0.4771008
0.4784301
0.4779171
0.4775937
0.4786848
0.4788101
0.4780681
0.4777899
0.4788865
0.4786083
0.477867
0.4783675
0.4777967
0.477057
0.4774728
0.4778737
0.4782908
0.4775501
0.4732332
0.4710077
0.4732548
0.4709852
0.4748755
0.4759637
0.4760434
0.4747946
0.4731858
0.4708505
0.4709359
0.4731029
0.4760073
0.477178
0.4752152
0.4763422
0.4760276
0.4771582
0.4751948
0.4742834
0.4718259
0.4735008
0.4710581
0.4743044
0.4718038
0.4734797
0.4759626
0.4770366
0.4762979
0.4750702
0.4771143
0.4758836
0.4751497
0.4742372
0.4716713
0.4710093
0.4733515
0.4717554
0.4741562
0.4734331
0.474268
0.4757447
0.4744761
0.4755377
0.4721043
0.4691983
0.4697111
0.4715944
0.4739403
0.4746997
0.4752104
0.4734306
0.4734867
0.4710781
0.4728612
0.4701
0.4736924
0.470868
0.4726561
0.4753358
0.4767837
0.4746954
0.4757349
0.475539
0.4765815
0.4744925
0.4731633
0.4700323
0.4697717
0.4718321
0.4705391
0.4726616
0.4723331
0.4750146
0.4757592
0.4754143
0.4736713
0.4762609
0.4745138
0.4741716
0.47726
0.4776817
0.4774671
0.4774743
0.4765889
0.4755368
0.4760484
0.4760765
0.4769319
0.4766328
0.4771459
0.4764191
0.4779386
0.4776068
0.4772996
0.4765605
0.4781407
0.4774049
0.4770972
0.4782786
0.4786938
0.4776432
0.4776556
0.478481
0.4784912
0.4774403
0.4776175
0.4765815
0.4762394
0.4762717
0.4770841
0.4771141
0.4767754
0.477957
0.4776647
0.4773327
0.4766134
0.4781692
0.4774531
0.4771179
0.477721
0.4779444
0.4779292
0.477736
0.4773516
0.4767624
0.4772759
0.4768379
0.4773916
0.4768918
0.4774063
0.4768775
0.4786974
0.4788241
0.4780711
0.4777884
0.4789007
0.4786211
0.4778671
0.4787385
0.4789587
0.4781145
0.4779281
0.4789421
0.4787549
0.4779101
0.4783747
0.477794
0.477465
0.4770369
0.4782987
0.4778696
0.4775432
0.4784155
0.4779257
0.4776034
0.4770791
0.4784316
0.4779101
0.4775858
0.4776558
0.4777824
0.4778647
0.4775734
0.4773747
0.4768854
0.4774004
0.4768593
0.4773253
0.4767261
0.4772426
0.4768094
0.4787292
0.4789556
0.4781103
0.4779262
0.4789334
0.4787516
0.4779052
0.4786836
0.47881
0.478066
0.4777836
0.478888
0.4786055
0.4778607
0.4784052
0.4779216
0.4776012
0.4770715
0.478428
0.4778983
0.4775798
0.4783593
0.4777728
0.4774576
0.4770261
0.4782809
0.4778518
0.477535
0.4769054
0.4766089
0.4771148
0.4763991
0.4769007
0.4765928
0.4771098
0.4763832
0.4765739
0.475549
0.4760672
0.4760559
0.4782764
0.4786831
0.4776614
0.477657
0.4784812
0.4784784
0.4774556
0.4779584
0.477669
0.4773442
0.476644
0.4781635
0.4774634
0.4771381
0.4779511
0.4776448
0.4773306
0.4766185
0.4781535
0.4774419
0.477129
0.4776328
0.4766272
0.4763167
0.4763003
0.4771374
0.4771231
0.4768113
0.4727521
0.4707114
0.4729674
0.470492
0.4741154
0.4747706
0.4752893
0.4735959
0.4724148
0.4696235
0.4701496
0.4718931
0.4755452
0.4769081
0.4749388
0.4758826
0.4757535
0.4767016
0.4747299
0.4738118
0.4715339
0.4732174
0.470568
0.4740233
0.4713172
0.4730052
0.4752167
0.475864
0.4755546
0.4738878
0.4763748
0.474705
0.4744003
0.4734798
0.4704583
0.4702284
0.4721571
0.4709788
0.4729655
0.4726722
0.4714605
0.4739117
0.4726463
0.4727174
0.4679379
0.4636643
0.4656442
0.4657198
0.4697335
0.4686501
0.470977
0.4674265
0.4707312
0.4692608
0.4710635
0.4673553
0.4718926
0.4681197
0.4699051
0.4725691
0.4749843
0.4728999
0.4729613
0.4737421
0.4738038
0.4717305
0.4689945
0.4645877
0.4657672
0.4658242
0.4665282
0.4665932
0.4681752
0.4708052
0.4694641
0.4711932
0.4674849
0.4720276
0.468263
0.4699744
0.4744266
0.4758406
0.4756272
0.4746403
0.472338
0.4694725
0.471802
0.4700096
0.4726807
0.4705716
0.4728955
0.4703547
0.4751495
0.4758042
0.4754923
0.4737781
0.4763355
0.4746198
0.4743093
0.4754875
0.4768852
0.475833
0.4748624
0.4766738
0.475699
0.4746492
0.4733684
0.4702753
0.4720055
0.470027
0.4728394
0.4708067
0.4725356
0.473707
0.4713635
0.4730896
0.4703701
0.4739195
0.4711485
0.4728758
0.4748847
0.4760987
0.4760849
0.4748979
0.4731023
0.4707041
0.4730264
0.470781
0.4731413
0.4708325
0.473154
0.4708203
0.4759034
0.4770142
0.476255
0.4749934
0.4770896
0.4758281
0.4750704
0.4759432
0.4771448
0.4762966
0.4751275
0.4771296
0.4759577
0.4751117
0.4741252
0.4714953
0.4732212
0.4707981
0.4740494
0.4715721
0.4732984
0.4741648
0.471625
0.4733545
0.4708392
0.4741786
0.4716119
0.4733394
0.4748097
0.4759297
0.476014
0.4747236
0.4731154
0.4708223
0.4731451
0.4707908
0.4730608
0.4706416
0.472972
0.4707335
0.4759267
0.47714
0.4762869
0.4751231
0.4771159
0.475952
0.475099
0.4758777
0.4769884
0.4762406
0.4749703
0.4770685
0.4757959
0.4750511
0.4741446
0.4716164
0.4733487
0.470818
0.4741717
0.4715868
0.4733229
0.4740933
0.471443
0.4731889
0.4707644
0.4740085
0.4715321
0.4732726
0.4740448
0.4747491
0.4752565
0.4735366
0.4726165
0.4704978
0.4728325
0.4702773
0.4722833
0.4694248
0.4717732
0.4699391
0.4754586
0.4768593
0.4758298
0.4748398
0.4766552
0.4756647
0.4746347
0.475137
0.4758391
0.4755108
0.4738179
0.4763355
0.4746396
0.474314
0.4736641
0.471303
0.4730551
0.4703228
0.4738739
0.4710871
0.4728464
0.4733388
0.4702481
0.4720235
0.4699917
0.4728387
0.4707548
0.4725221
0.4698948
0.4688229
0.4710949
0.4676352
0.4698356
0.4686474
0.4709973
0.4674999
0.4681571
0.4639377
0.4659725
0.4658999
0.472723
0.4750761
0.4730992
0.4730567
0.4739178
0.4738774
0.4719061
0.4709911
0.469667
0.4713685
0.4677431
0.4721783
0.4684964
0.4701826
0.4709302
0.469482
0.4712627
0.4675944
0.4720768
0.4683525
0.4701196
0.46922
0.4648655
0.4661098
0.4660272
0.4668597
0.4667801
0.4684169
0.4651033
0.4683761
0.4671454
0.4649641
0.4682191
0.4670614
0.4700528
0.4699776
0.4688097
0.4680293
0.4703099
0.4700916
0.4708884
0.4726148
0.4714302
0.4719967
0.4729645
0.4717783
0.4685088
0.4705853
0.4705692
0.4721333
0.4734021
0.4722136
0.4722743
0.4734465
0.4722572
0.4684348
0.4704173
0.4705025
0.4722702
0.4734388
0.4722462
0.4721145
0.4733912
0.472197
0.4676525
0.4692319
0.4697371
0.4719793
0.4729696
0.4717704
0.4709395
0.4726435
0.4714429
0.4636599
0.4637297
0.4656831
0.4701636
0.4702048
0.4690096
0.4653628
0.46856
0.4673705
0.4707614
0.472525
0.471267
0.4677288
0.4700387
0.4698313
0.4728518
0.4717992
0.4715935
0.4737614
0.4744957
0.4742742
0.4737001
0.4744569
0.4742504
0.4748267
0.4748116
0.4746043
0.4742469
0.4747823
0.4747629
0.4749665
0.4752585
0.4750495
0.4751156
0.4753052
0.4750958
0.4741949
0.4746339
0.4747133
0.4751143
0.4753038
0.4750935
0.4749686
0.4752581
0.4750476
0.47345
0.4734663
0.4739697
0.4748364
0.474841
0.4746303
0.4738012
0.4745154
0.4743046
0.4693624
0.4678759
0.469884
0.4730225
0.4720772
0.4718643
0.4682196
0.4704385
0.4702229
0.4719303
0.4732656
0.4720084
0.4682023
0.4703155
0.4702956
0.4733097
0.4720723
0.4720528
0.4749437
0.4752458
0.4750219
0.4741587
0.4747298
0.4747105
0.4752903
0.4750856
0.4750662
0.4754391
0.4755392
0.4755185
0.4754318
0.4755359
0.4755162
0.4755845
0.4755834
0.4755637
0.4753928
0.4753938
0.4754727
0.4755839
0.4755835
0.4755636
0.4754393
0.475538
0.4755182
0.4746501
0.4742273
0.4747301
0.4753071
0.4751209
0.475101
0.4742729
0.4747954
0.4747755
0.4705772
0.4686673
0.4706607
0.473496
0.4723625
0.4723421
0.4687167
0.4707295
0.4707085
0.4720721
0.4733091
0.4720522
0.4681545
0.4701694
0.4702492
0.4732647
0.4719288
0.4720074
0.4750854
0.4752898
0.4750657
0.4741137
0.4745871
0.4746654
0.4752448
0.4749423
0.4750209
0.4755832
0.4755839
0.4755631
0.4753861
0.4753907
0.4754703
0.4755382
0.4754377
0.4755176
0.4755378
0.4754387
0.4755176
0.4755376
0.475437
0.4755173
0.4753928
0.4753914
0.4754717
0.4747952
0.4742722
0.4747749
0.4752607
0.4749742
0.4750546
0.4742261
0.4746485
0.474729
0.4707291
0.4687152
0.4707073
0.4734487
0.4722114
0.4722938
0.4686648
0.4705744
0.4706587
0.471797
0.472849
0.4715905
0.4673933
0.4689926
0.4694995
0.4725211
0.4707558
0.471263
0.4748096
0.474824
0.4746016
0.4733683
0.4734047
0.4739176
0.474492
0.4737563
0.4742705
0.4753032
0.4751129
0.4750931
0.4746311
0.4741967
0.4747135
0.4747786
0.4742418
0.4747592
0.4752561
0.4749658
0.4750449
0.4747769
0.4742365
0.4747557
0.4746302
0.4741898
0.4747095
0.4745132
0.473798
0.4743016
0.4744978
0.4737705
0.4742915
0.473462
0.4734445
0.4739657
0.4704347
0.4682137
0.4702181
0.4726827
0.4710015
0.4715228
0.4678684
0.4693546
0.4698778
0.4699698
0.4700419
0.4687985
0.4633646
0.4634166
0.4653996
0.4683602
0.4650801
0.4671291
0.4729572
0.4719863
0.4717678
0.4691896
0.4676588
0.4697289
0.4702945
0.4680071
0.4700762
0.4734392
0.4722638
0.4722467
0.4704308
0.4684438
0.4705108
0.4705699
0.4684865
0.4705538
0.4733839
0.4721039
0.4721865
0.4705644
0.4684667
0.4705385
0.4704018
0.4684125
0.4704871
0.4726358
0.4709284
0.4714321
0.4702638
0.467965
0.4700516
0.4692159
0.4676299
0.4697213
0.4685498
0.4653478
0.4673572
0.4684412
0.4652054
0.4672929
0.4637102
0.4636357
0.4656651
)
;

boundaryField
{
    solid_to_air
    {
        type            zeroGradient;
    }
}


// ************************************************************************* //
