/*--------------------------------*- C++ -*----------------------------------*\
| =========                 |                                                 |
| \\      /  F ield         | OpenFOAM: The Open Source CFD Toolbox           |
|  \\    /   O peration     | Version:  2506                                  |
|   \\  /    A nd           | Website:  www.openfoam.com                      |
|    \\/     M anipulation  |                                                 |
\*---------------------------------------------------------------------------*/
FoamFile
{
    version     2.0;
    format      ascii;
    arch        "LSB;label=32;scalar=64";
    class       volScalarField;
    location    "50/airRegion";
    object      alphat;
}
// * * * * * * * * * * * * * * * * * * * * * * * * * * * * * * * * * * * * * //

dimensions      [1 -1 -1 0 0 0 0];

internalField   nonuniform List<scalar> 
85779
(
0.1066482
0.1068783
0.1060886
0.1042479
0.0990894
0.08415437
0.07932987
0.07994219
0.08394661
0.09026702
0.0978488
0.1054161
0.1117385
0.1160289
0.1180214
0.1176204
0.1142914
0.1079779
0.09888811
0.08857192
0.08012136
0.0766925
0.08048846
0.09435848
0.1010385
0.1040621
0.1045415
0.1019308
0.08591964
0.02338422
0.106655
0.10669
0.1049136
0.1008209
0.09242735
0.08547247
0.08244669
0.0828674
0.08617413
0.09178347
0.09878508
0.1059229
0.1119518
0.1160718
0.118026
0.1177693
0.1148838
0.1093161
0.1011797
0.09164889
0.0832749
0.07878183
0.07952867
0.08500186
0.09131089
0.09892349
0.1006092
0.09689748
0.07889137
0.02193141
0.106368
0.1058474
0.1032363
0.09764096
0.08956158
0.08552682
0.08404845
0.08488197
0.0879909
0.09313311
0.09959351
0.1062222
0.1118334
0.1156695
0.1175289
0.1174648
0.1152337
0.1107613
0.1039906
0.09552814
0.08708072
0.08081039
0.07806925
0.07886813
0.082859
0.09374777
0.09696378
0.09406092
0.07777697
0.02214394
0.1062497
0.1053469
0.1021382
0.09540426
0.08732741
0.08465053
0.08419003
0.08554363
0.08878825
0.09379185
0.09992961
0.1061381
0.1113199
0.1148071
0.1164999
0.1165891
0.1150249
0.111695
0.1063451
0.09901328
0.09053204
0.08242412
0.07624301
0.07313248
0.07508585
0.08883171
0.09426171
0.09268709
0.07792494
0.02230995
0.106202
0.105061
0.1013419
0.09349877
0.08616425
0.08404442
0.08393354
0.08555601
0.08894579
0.09391919
0.09983719
0.10567
0.110396
0.113451
0.1148662
0.1149988
0.1139999
0.1117226
0.1077136
0.1015368
0.09327018
0.08377405
0.07475499
0.06860625
0.0686425
0.08285347
0.09205157
0.09194119
0.07817988
0.02240644
0.1061699
0.1048719
0.1005794
0.09117544
0.08587446
0.08370205
0.08364391
0.08539288
0.08886053
0.09378098
0.099469
0.1048954
0.1090905
0.1115882
0.1125678
0.1125854
0.1120066
0.1106684
0.1079112
0.1029339
0.09523999
0.08505616
0.07401224
0.06561243
0.06397425
0.07225485
0.08981152
0.09136341
0.07824662
0.02245293
0.1061373
0.1047456
0.1002501
0.09030221
0.085306
0.08333589
0.08342283
0.08526093
0.08873712
0.09354159
0.09894338
0.1038942
0.1074501
0.1092275
0.1095704
0.109285
0.1089855
0.108513
0.1069643
0.1032565
0.09650426
0.08637488
0.07407739
0.06354865
0.06015851
0.06779251
0.08836964
0.09077589
0.07806968
0.0224675
0.1060974
0.1046217
0.1000044
0.08982691
0.08496636
0.083166
0.08335187
0.08521329
0.08863219
0.09326387
0.09832711
0.1027352
0.1055386
0.1064128
0.1058866
0.1050968
0.1049692
0.1053576
0.1050315
0.1026664
0.09715425
0.08777505
0.0751215
0.06282335
0.05724484
0.06393824
0.08637345
0.08986845
0.07763131
0.02246352
0.1060501
0.1044761
0.09973051
0.08945548
0.08479102
0.08314421
0.08337942
0.08521321
0.08853372
0.09296312
0.09766463
0.1014937
0.1034597
0.1032619
0.1016305
0.1001441
0.1001299
0.1014386
0.102384
0.1014065
0.09730745
0.08918113
0.07703496
0.06361931
0.05532196
0.05920937
0.0819379
0.08823123
0.07688681
0.02244844
0.1059961
0.1042937
0.09937096
0.08916271
0.08475197
0.08321302
0.08344477
0.08521678
0.08842234
0.09264955
0.09700457
0.1002713
0.1013843
0.1000228
0.09711457
0.0947931
0.09488125
0.0971788
0.0994163
0.09980503
0.09713551
0.09045449
0.07935088
0.06558594
0.0548383
0.05392696
0.06591636
0.08519175
0.07584238
0.02242146
0.1059401
0.1040894
0.09897625
0.08909025
0.084862
0.08332388
0.083502
0.08519818
0.08829395
0.09234508
0.09640831
0.09919681
0.09955515
0.0971071
0.0929392
0.08977388
0.08996209
0.09320312
0.09662203
0.09823453
0.09686938
0.09161911
0.08176633
0.06797746
0.05481245
0.05002119
0.05901839
0.08277029
0.0745758
0.02238065
0.1059271
0.1040605
0.09892679
0.08883403
0.08473987
0.08331005
0.08350148
0.08515231
0.08816337
0.09208346
0.09594162
0.09839998
0.09822937
0.09499496
0.0898771
0.08604361
0.08627101
0.09018112
0.09448609
0.09703217
0.09673212
0.09279068
0.08437956
0.07122424
0.05605899
0.04673981
0.05209879
0.0778895
0.07239713
0.0223163
0.1059206
0.1040482
0.09891854
0.08875453
0.08468797
0.08329201
0.08348131
0.08509892
0.08805461
0.09190024
0.09565901
0.09797271
0.09757419
0.09398866
0.08841722
0.08421744
0.08438655
0.08855998
0.09332913
0.09643312
0.09686751
0.09397399
0.08700082
0.07519033
0.05930934
0.04491973
0.04137706
0.05719331
0.06796001
0.0222037
0.1059175
0.1040406
0.09890799
0.08872919
0.08466982
0.08328015
0.0834625
0.08506154
0.0879952
0.09182802
0.09559861
0.09796227
0.09765677
0.09419332
0.08872362
0.08451913
0.08454952
0.08855185
0.09332132
0.0965676
0.09734601
0.09511009
0.08925276
0.07891363
0.06352137
0.04561888
0.03412809
0.03883781
0.06294686
0.02204198
0.1059165
0.1040382
0.09890483
0.08872433
0.08466689
0.08327809
0.08345901
0.08505881
0.08800698
0.09188961
0.09577942
0.0983788
0.0984778
0.09560963
0.09081546
0.08699491
0.08682627
0.09023283
0.09451765
0.09747133
0.0981717
0.09611901
0.09081535
0.08150908
0.06723496
0.04823328
0.03013096
0.02463162
0.04945005
0.02181893
0.1059167
0.1040386
0.09890547
0.08872593
0.08467005
0.083285
0.08347557
0.08509867
0.08809899
0.09209036
0.0961927
0.09918178
0.09994134
0.09806187
0.0944253
0.09133411
0.09095803
0.09344009
0.09679807
0.09905431
0.09926476
0.09687846
0.09136138
0.08193993
0.0676166
0.04850549
0.03000561
0.02395642
0.04877959
0.02180284
0.105918
0.1040417
0.09890982
0.08873374
0.08467892
0.08330023
0.08351085
0.08517808
0.08826362
0.0924106
0.09678904
0.1002542
0.1017913
0.1010463
0.09872233
0.09651585
0.09604816
0.09758918
0.09979898
0.1010782
0.1004614
0.0972737
0.09080707
0.08012331
0.06450025
0.04607268
0.03344948
0.03698461
0.06230791
0.02202913
0.1059214
0.1040499
0.09892126
0.08876126
0.08470182
0.08332328
0.08355737
0.08528272
0.08847651
0.09280837
0.0974924
0.1014516
0.1037517
0.1040667
0.102927
0.1015541
0.1011215
0.1019069
0.103018
0.1032228
0.1015682
0.09724109
0.08934085
0.07694962
0.06052376
0.04518864
0.0399854
0.04998751
0.06721102
0.02217824
0.1059281
0.1040624
0.0989298
0.08884168
0.08475662
0.08334944
0.08359895
0.08538865
0.08870318
0.09323249
0.09822487
0.1026516
0.1056285
0.1068305
0.1066445
0.1059602
0.1056262
0.1058583
0.1060348
0.1051898
0.1023966
0.09672627
0.08717769
0.07323737
0.05721824
0.04667423
0.05083448
0.07659297
0.07192661
0.02229943
0.1059409
0.104091
0.09897888
0.08909714
0.08487921
0.08336748
0.08361301
0.08546852
0.08890713
0.0936325
0.09891883
0.1037675
0.1073176
0.1092277
0.1097729
0.1096194
0.109387
0.109203
0.108602
0.1067739
0.1028121
0.09572396
0.08460604
0.06983992
0.05567641
0.04991168
0.05833669
0.0823386
0.07432691
0.02236831
0.1059964
0.1042942
0.09937159
0.08916654
0.08476677
0.0832567
0.08356104
0.08550118
0.08906123
0.0939697
0.09952588
0.1047486
0.10878
0.1112507
0.112349
0.1125876
0.1124197
0.1118882
0.1106113
0.1078632
0.1027473
0.09428895
0.0819127
0.06713884
0.05550014
0.05392273
0.06561275
0.08501797
0.07572487
0.02241343
0.1060495
0.1044749
0.0997285
0.08945534
0.08480209
0.08318544
0.08349425
0.08549346
0.08915444
0.09422281
0.1000199
0.1055733
0.1100135
0.1129345
0.1144519
0.1149667
0.1148036
0.1139364
0.1120266
0.1083942
0.1021635
0.09245382
0.07915487
0.06484428
0.05584107
0.05927371
0.08183871
0.08816544
0.07684244
0.02244366
0.1060958
0.1046186
0.0999994
0.08982237
0.08497376
0.08320449
0.08346148
0.0854757
0.08920038
0.09439354
0.1003968
0.106241
0.1110336
0.1143228
0.1161569
0.1168471
0.1166106
0.1153709
0.1128169
0.1083088
0.1010468
0.09035727
0.0767584
0.06375905
0.0576664
0.06403554
0.08633846
0.08984857
0.07762085
0.02246025
0.1061346
0.1047405
0.1002423
0.09029479
0.08531284
0.08337492
0.08352772
0.0854982
0.08923116
0.09449938
0.1006657
0.1067606
0.1118584
0.1154509
0.1175173
0.1182872
0.1178777
0.1161837
0.1129262
0.107542
0.09941217
0.08827345
0.0752761
0.06425855
0.06050688
0.06786372
0.08835809
0.09077101
0.07806542
0.02246404
0.1061662
0.1048651
0.1005695
0.09116906
0.0858885
0.08375024
0.08374975
0.08560426
0.08927103
0.0945502
0.1008297
0.1071353
0.1124974
0.1163387
0.118562
0.1193138
0.1186079
0.1163346
0.1122704
0.10601
0.09727901
0.0863694
0.07486912
0.06617798
0.0642547
0.0719383
0.08973537
0.09135175
0.07823479
0.02244865
0.1061975
0.1050533
0.1013319
0.09349267
0.0861947
0.08411451
0.08404867
0.08574297
0.0892699
0.09450003
0.1008539
0.1073441
0.1129422
0.116989
0.1193018
0.119937
0.1187925
0.1157787
0.1107658
0.1036256
0.09461629
0.08464747
0.07539787
0.06920253
0.06899958
0.07857533
0.09157891
0.09189495
0.07815791
0.02240162
0.1062449
0.1053394
0.1021303
0.09540672
0.08739
0.08475688
0.08431771
0.08569943
0.08901848
0.0941892
0.1006359
0.1073297
0.1131653
0.117393
0.1197418
0.1201722
0.1184493
0.1145213
0.1083955
0.1003573
0.09137396
0.08297497
0.07664014
0.07341833
0.07517106
0.08840716
0.09418585
0.09266738
0.07789969
0.02230525
0.1063638
0.1058412
0.1032324
0.09765788
0.08967364
0.08567865
0.08417908
0.08498418
0.08810795
0.09334843
0.1000277
0.1070223
0.1131375
0.1175441
0.1198973
0.1200665
0.1176708
0.1126985
0.1053256
0.09636216
0.08760315
0.08117236
0.07833577
0.0790483
0.08294623
0.09372292
0.09695175
0.09404644
0.07775102
0.02213958
0.1066519
0.1066858
0.1049149
0.1008513
0.09257837
0.08566433
0.08257021
0.08289826
0.08616471
0.09182611
0.09899506
0.1064297
0.1128724
0.117458
0.1198049
0.119714
0.116664
0.110666
0.1020579
0.09218547
0.08363966
0.07906217
0.07972471
0.08510138
0.09135705
0.09892597
0.1006034
0.09688569
0.07887091
0.02192788
0.1066465
0.1068757
0.1060903
0.1042787
0.09920966
0.08437648
0.07946108
0.07992645
0.08384474
0.09018987
0.09791765
0.105753
0.1124479
0.1171528
0.119487
0.1192168
0.1157247
0.1090212
0.09954012
0.08898259
0.08044222
0.07695833
0.08064936
0.09439182
0.1010471
0.1040616
0.104538
0.101925
0.0859116
0.02338386
0.1066905
0.1067928
0.1053406
0.1023732
0.09602887
0.08437378
0.08056599
0.08125185
0.08505737
0.09112261
0.09844649
0.1057708
0.1118906
0.1160531
0.1180313
0.1177831
0.1148603
0.1091039
0.1004995
0.09015452
0.08088577
0.07622036
0.07915873
0.09310983
0.09881416
0.1010984
0.1011461
0.09735401
0.07987254
0.02203752
0.1056806
0.1059554
0.1041291
0.09971552
0.09306636
0.08680646
0.08373522
0.08393191
0.08702852
0.09245542
0.09927362
0.1062174
0.1120656
0.11606
0.1179894
0.1178636
0.1153481
0.1103057
0.102677
0.09326968
0.08434547
0.07882396
0.07861435
0.08341567
0.08869302
0.09238101
0.09199397
0.08449171
0.06195835
0.01665904
0.104577
0.1037584
0.1015005
0.09704605
0.09164442
0.08739462
0.08532642
0.08573356
0.08861062
0.09362153
0.09996038
0.1064384
0.1118863
0.1155925
0.1174059
0.1174351
0.1155137
0.1115108
0.1052596
0.09711149
0.08850913
0.08163014
0.07816798
0.07829627
0.08054692
0.08347619
0.08305706
0.07541194
0.05458819
0.01571355
0.1040757
0.1023252
0.09931051
0.09449152
0.08966341
0.08651236
0.08531464
0.08621293
0.08924926
0.09416098
0.1002123
0.1062897
0.1113091
0.11465
0.1162662
0.1164028
0.1150803
0.1121582
0.107328
0.1004846
0.09226809
0.08408717
0.07754834
0.073689
0.07285359
0.07494816
0.07563319
0.06990394
0.05201648
0.01594952
0.1038732
0.101614
0.098013
0.09278074
0.08819945
0.0855209
0.08479821
0.08606908
0.08931163
0.09422664
0.1000728
0.105773
0.11032
0.1131986
0.1144965
0.1146271
0.1138066
0.1118839
0.1083874
0.1028301
0.09519468
0.08616421
0.07713138
0.06993529
0.06643046
0.06767877
0.07016652
0.06683775
0.05132412
0.01621668
0.1037731
0.1012425
0.09726346
0.09169382
0.08728585
0.08481112
0.08432885
0.08581648
0.08918194
0.0940634
0.0996797
0.1049569
0.1089405
0.1112151
0.1120228
0.1119865
0.1115364
0.1105188
0.1082669
0.10399
0.09719693
0.0879661
0.07732132
0.06757115
0.0617913
0.06188231
0.06605019
0.06482777
0.05095438
0.01634751
0.1037009
0.1009999
0.09680951
0.09104154
0.08669339
0.08436424
0.08403629
0.08564035
0.08903862
0.0938144
0.09913668
0.1039109
0.1072056
0.1086887
0.1087814
0.1083848
0.1081861
0.1080329
0.1069945
0.1040248
0.09832671
0.0895431
0.07820616
0.06663016
0.05873578
0.05770717
0.06264286
0.06293143
0.05030414
0.01637126
0.1036315
0.1007872
0.09645193
0.09061185
0.08633726
0.08412887
0.08390048
0.08555288
0.08891769
0.09352973
0.09850199
0.1026961
0.1051669
0.1056373
0.1047398
0.10377
0.1037501
0.1045086
0.1047277
0.1031146
0.09870028
0.09086447
0.07970613
0.06706479
0.05711918
0.05432238
0.05906973
0.06056875
0.04920434
0.0163284
0.1035617
0.1005766
0.0961169
0.09027986
0.08611691
0.08401822
0.08385218
0.08550953
0.08880217
0.09322107
0.09781796
0.1013865
0.1029214
0.102156
0.09996301
0.09820864
0.09836596
0.1001714
0.1017438
0.1015293
0.09849382
0.09192572
0.08159635
0.06867917
0.05689656
0.05141603
0.05453904
0.05733212
0.04759273
0.01623932
0.1034948
0.1003685
0.09579289
0.09002392
0.08598876
0.08397455
0.08383695
0.0854709
0.08867443
0.0928996
0.09713579
0.1000897
0.1006506
0.09850084
0.0947557
0.09205928
0.09246445
0.09547161
0.09846232
0.09962583
0.09795384
0.0927459
0.08357724
0.07099213
0.05787364
0.04934618
0.04888577
0.05311403
0.04546783
0.01610206
0.1034378
0.1001842
0.09553099
0.08987507
0.08593421
0.08396089
0.08382275
0.08541828
0.08853322
0.09258927
0.09652191
0.09894972
0.09863666
0.0951659
0.0898468
0.08620481
0.08692347
0.0911241
0.09542471
0.09781294
0.09735901
0.09344559
0.08555418
0.07367902
0.05966484
0.04829539
0.04466117
0.04825686
0.0426203
0.01589853
0.1034137
0.1001107
0.09539583
0.08972498
0.08585241
0.08392852
0.08379419
0.08535371
0.08839424
0.0923244
0.09604602
0.09811323
0.09719125
0.09277443
0.08628774
0.08192082
0.08284759
0.08789846
0.09314717
0.09644552
0.0969519
0.09415872
0.08756023
0.07679262
0.06259532
0.0485514
0.04069939
0.04173275
0.0383545
0.01558064
0.1034026
0.1000777
0.09534314
0.08966058
0.08580953
0.08390297
0.0837621
0.08529093
0.08828048
0.09214012
0.09576294
0.09767641
0.09649737
0.09166839
0.08464311
0.0798886
0.08082912
0.08621536
0.09194027
0.0957551
0.0968902
0.09493885
0.08948123
0.08004098
0.06656048
0.05082224
0.03774912
0.03247177
0.03203646
0.015066
0.1033983
0.1000649
0.0953229
0.08963763
0.08579253
0.08388836
0.0837387
0.08524886
0.08821781
0.09206822
0.0957096
0.09768443
0.09661623
0.09193358
0.08503205
0.08026935
0.08104605
0.08623521
0.09194496
0.09586027
0.0972521
0.09578314
0.09113248
0.08286825
0.07059017
0.05472529
0.03823669
0.02706061
0.02472872
0.01431202
0.1033973
0.1000617
0.09531824
0.08963297
0.08578937
0.0838851
0.08373305
0.08524331
0.08822743
0.09213201
0.09590598
0.09814963
0.09755655
0.0935958
0.08752701
0.08317525
0.08361504
0.08805863
0.0932175
0.09679457
0.0980469
0.09664852
0.09233241
0.08474887
0.07349346
0.05850601
0.04114101
0.02538992
0.01691555
0.01333459
0.1033976
0.1000625
0.09531942
0.08963475
0.08579233
0.08389139
0.08374857
0.08528199
0.08831942
0.09233859
0.09634484
0.09903197
0.0992237
0.09649005
0.09190266
0.08837666
0.08836829
0.0915905
0.09566427
0.09847319
0.0991994
0.09744254
0.09288959
0.08516382
0.0738416
0.05883168
0.04140613
0.02542652
0.01664286
0.01327877
0.1033991
0.1000669
0.09532624
0.08964269
0.08580104
0.08390668
0.08378425
0.08536246
0.08848695
0.09266834
0.09697225
0.1001946
0.1013003
0.09995861
0.09701831
0.09450761
0.09420829
0.09619174
0.09891121
0.100657
0.100545
0.09804861
0.0927196
0.08404382
0.07154573
0.05550917
0.03860543
0.02660206
0.02367808
0.01422073
0.1034037
0.1000807
0.09534801
0.08966808
0.08582251
0.08393164
0.08383438
0.08547166
0.08870627
0.09307871
0.09770749
0.1014745
0.1034537
0.1033642
0.1018391
0.1002643
0.09989364
0.1009303
0.1023965
0.1030022
0.1018736
0.09836614
0.09187753
0.08179212
0.06788552
0.05166184
0.03777376
0.03145969
0.03119592
0.01497658
0.1034149
0.1001138
0.09540116
0.08973354
0.08586811
0.08396491
0.08388787
0.08558867
0.08894358
0.09351739
0.09846888
0.1027399
0.1054703
0.1063878
0.1059508
0.1051302
0.1048147
0.105204
0.1056525
0.1051857
0.1029774
0.09829898
0.09044152
0.07885789
0.06403925
0.04922353
0.04032565
0.04056395
0.03756874
0.01550859
0.1034387
0.1001868
0.09553545
0.08988288
0.08595033
0.08400153
0.08393081
0.08569019
0.08916272
0.09393238
0.09918676
0.1039033
0.1072522
0.1089461
0.1093131
0.1090629
0.1088388
0.1087783
0.1084194
0.1069903
0.1037041
0.09778974
0.08853211
0.07571278
0.06091708
0.04873339
0.04434551
0.04752143
0.04212569
0.01584915
0.1034952
0.1003696
0.09579502
0.09002888
0.08600266
0.08401569
0.08395157
0.08576008
0.08933567
0.09428285
0.09981151
0.1049166
0.1087732
0.1110652
0.1120245
0.1121917
0.1120397
0.1116302
0.1106038
0.1083023
0.1039682
0.09683615
0.08632053
0.0727699
0.05887544
0.04969028
0.04875938
0.05275517
0.04522573
0.01607294
0.1035612
0.1005755
0.09611569
0.0902807
0.08612713
0.08405735
0.08396649
0.08579695
0.08944888
0.09454586
0.1003165
0.1057615
0.1100429
0.1128062
0.1142073
0.11467
0.11454
0.113813
0.1121848
0.1090597
0.1037171
0.09544463
0.0839042
0.07011794
0.0576799
0.05172151
0.05455636
0.05722901
0.04751591
0.01622465
0.1036299
0.1007834
0.09644682
0.09060838
0.08634414
0.08416569
0.08401014
0.08582327
0.0895124
0.09472145
0.1006977
0.1064403
0.1110851
0.1142304
0.1159641
0.1166207
0.1164426
0.1153749
0.1131464
0.1092075
0.1029032
0.09366106
0.08150559
0.06816818
0.05773229
0.05460591
0.05916271
0.06058216
0.04920736
0.01632025
0.1036981
0.1009937
0.0968014
0.09103595
0.08670028
0.0844019
0.08414096
0.08588457
0.08955662
0.09482727
0.1009653
0.1069649
0.1119243
0.1153845
0.1173653
0.1181228
0.1178059
0.1163265
0.1134434
0.1086703
0.1014888
0.09161067
0.07952298
0.06744919
0.05922067
0.05796009
0.06275284
0.06297759
0.050323
0.01636247
0.1037695
0.1012355
0.09725556
0.09169215
0.08730127
0.08485801
0.08443324
0.08603209
0.08961147
0.09487828
0.101127
0.1073428
0.1125755
0.116296
0.1184501
0.1192161
0.1186473
0.1166406
0.1129971
0.1073475
0.09943339
0.08940004
0.07823893
0.06817064
0.06216947
0.06204836
0.06612767
0.06486186
0.05095792
0.01633529
0.1038698
0.1016093
0.09801169
0.09279244
0.0882366
0.08558946
0.08490938
0.08625641
0.08964886
0.09484322
0.1011583
0.10756
0.1130356
0.116973
0.1192353
0.1199171
0.1189652
0.116279
0.1117244
0.1051376
0.09668862
0.08710917
0.07775325
0.07038406
0.06674239
0.06763342
0.07015563
0.06684038
0.05130685
0.01620197
0.104074
0.1023277
0.09932451
0.09452864
0.08973696
0.0866117
0.08543183
0.08636418
0.08948767
0.09458616
0.100973
0.107569
0.1132822
0.1174093
0.1197275
0.1202418
0.1187761
0.1152439
0.1096018
0.1020003
0.09322032
0.08468482
0.07793988
0.07395168
0.07300408
0.07496489
0.07563944
0.06988849
0.05198369
0.01593424
0.1045783
0.1037706
0.1015317
0.09711383
0.0917557
0.08751337
0.08542741
0.08582273
0.08873284
0.09386091
0.10044
0.1073086
0.1132892
0.1175983
0.1199389
0.1202301
0.1181596
0.1136537
0.1067756
0.09808297
0.08911203
0.0820139
0.07841249
0.07843948
0.0806164
0.08348669
0.08304627
0.07538195
0.05454971
0.01569928
0.1056833
0.1059693
0.1041623
0.0997949
0.09318025
0.08689796
0.08378269
0.08393058
0.08702055
0.09252205
0.09952524
0.1067837
0.1130661
0.1175497
0.1198973
0.1199611
0.1172963
0.1118261
0.1037075
0.09391807
0.08476433
0.07910065
0.07877136
0.08347614
0.08870837
0.09237056
0.091972
0.08446015
0.06192582
0.01664982
0.106689
0.1067938
0.10536
0.1024769
0.09634529
0.08444035
0.08054568
0.08116944
0.08494841
0.09106949
0.09855613
0.1061619
0.1126694
0.1172649
0.1196058
0.1195096
0.1164387
0.1102979
0.1012868
0.09065909
0.08123883
0.07646013
0.07927019
0.09312175
0.09881188
0.1010905
0.1011347
0.09733927
0.07985704
0.02203611
0.1064514
0.1061669
0.1043489
0.1008305
0.09337129
0.08369587
0.08107102
0.08220748
0.08604261
0.09192758
0.09897101
0.1059793
0.1118097
0.115775
0.1177159
0.1176753
0.1153362
0.1104277
0.1026777
0.09261376
0.08248801
0.07593913
0.07681107
0.0901106
0.09680684
0.09898796
0.09893803
0.09550734
0.07969271
0.02227561
0.1047199
0.1041721
0.1023061
0.0981737
0.0921986
0.08681344
0.08423469
0.08462089
0.08772893
0.09304981
0.09966866
0.1063511
0.111934
0.1157319
0.117607
0.1176541
0.1156623
0.1114032
0.1046124
0.09561988
0.08616701
0.0791589
0.07712616
0.0804957
0.08500888
0.08730179
0.08598615
0.07827612
0.05727679
0.01610684
0.1031933
0.1011006
0.09907595
0.09573175
0.09142138
0.08766858
0.08574381
0.08617636
0.08904434
0.0939988
0.1001992
0.1064568
0.1116519
0.1151484
0.1168727
0.117016
0.1155252
0.1122096
0.1067657
0.09920983
0.09055186
0.08277898
0.07786078
0.07638488
0.07683557
0.07689868
0.0738772
0.06454201
0.04466666
0.0130865
0.1025314
0.09924069
0.09641065
0.09302788
0.08947786
0.08675081
0.08560834
0.08649093
0.08952054
0.09440095
0.1003398
0.1062088
0.110967
0.1140691
0.1155479
0.1157284
0.1147338
0.1123988
0.1083382
0.1022525
0.09448154
0.08615358
0.07877601
0.07339455
0.06996103
0.06744587
0.0633675
0.05460157
0.03777003
0.01213821
0.1022899
0.09841444
0.09498237
0.09127161
0.08788918
0.08561915
0.08497375
0.08625211
0.0895059
0.0944009
0.1001359
0.105615
0.1098713
0.1124645
0.1135631
0.1136632
0.113076
0.1116554
0.1088913
0.104213
0.09745328
0.08904398
0.07997864
0.0715097
0.06467941
0.05974199
0.05513201
0.04794123
0.03426065
0.01204781
0.1021914
0.09804412
0.0942741
0.09030435
0.08692539
0.08483594
0.0844458
0.08596
0.08934999
0.09421339
0.09970585
0.1047324
0.1083761
0.1102953
0.1108218
0.1106774
0.1103869
0.1098178
0.108272
0.104943
0.09932127
0.09135392
0.08155139
0.07105764
0.06156947
0.05444918
0.04935075
0.04358433
0.03236779
0.01207799
0.1021332
0.09783144
0.09387109
0.08975794
0.0863702
0.0843779
0.08412937
0.08576759
0.08919996
0.09395643
0.0991358
0.1036168
0.1064984
0.1075191
0.1072114
0.1066214
0.1065431
0.1068363
0.1065065
0.1045136
0.1001348
0.09302859
0.08332337
0.07188462
0.06055666
0.05150198
0.04551682
0.04036017
0.03088207
0.01202633
0.1020848
0.09766645
0.09357911
0.08939793
0.08603261
0.08412119
0.08396476
0.08566322
0.08907458
0.093667
0.09847423
0.1023196
0.1042699
0.1041092
0.1026204
0.1013552
0.1014759
0.1027603
0.1037449
0.103125
0.100062
0.0940837
0.08507141
0.07357088
0.06117533
0.0503842
0.04298171
0.03747613
0.02928478
0.01189311
0.1020411
0.09752174
0.09333486
0.0891284
0.08580989
0.08397254
0.08387881
0.08559897
0.088953
0.09335336
0.09776127
0.1009114
0.1017748
0.1001154
0.09701675
0.09483793
0.09526307
0.09779463
0.1002692
0.1010755
0.09935502
0.09462517
0.08666079
0.07570842
0.06293463
0.05067911
0.04139547
0.03480023
0.02744058
0.01169681
0.1020037
0.09739729
0.09312809
0.08892347
0.08565963
0.08388148
0.08382416
0.08553936
0.08881904
0.09302792
0.09705174
0.09950864
0.09920787
0.09579614
0.0906633
0.0873886
0.08835232
0.09243865
0.09653636
0.09875664
0.09832862
0.09484211
0.08804384
0.07796815
0.06534724
0.05207249
0.04079438
0.03264714
0.02532809
0.01142494
0.1019753
0.09730165
0.0929703
0.08878226
0.08556362
0.08382241
0.08377766
0.08547007
0.0886733
0.09271648
0.0964186
0.09827811
0.09691465
0.09178357
0.08450574
0.08015367
0.08185655
0.08757002
0.09316212
0.09661615
0.09731241
0.09494567
0.08928702
0.08023552
0.06814207
0.05434322
0.04132305
0.0311833
0.02287144
0.01103115
0.1019607
0.09725335
0.09288937
0.08869672
0.08550201
0.08378071
0.08373342
0.08539467
0.08853104
0.09245298
0.09593579
0.09739129
0.09529939
0.08897087
0.08016393
0.07504096
0.07726569
0.08410414
0.09071186
0.09503818
0.09657489
0.09511178
0.09046758
0.08248469
0.07123602
0.05747526
0.043095
0.03057814
0.02039917
0.01043425
0.1019541
0.09723191
0.09285386
0.08865785
0.08547143
0.0837539
0.08369448
0.08532532
0.08841433
0.09227052
0.09565579
0.09694582
0.09455705
0.0877316
0.07826647
0.07274974
0.07511088
0.08237761
0.08945604
0.09423957
0.09628361
0.09544287
0.09158994
0.08457217
0.07431834
0.06113678
0.04615727
0.03148521
0.01913798
0.009526809
0.101952
0.09722503
0.09284243
0.0886456
0.08546075
0.08374
0.08366794
0.08527846
0.0883478
0.09219911
0.09561206
0.09697949
0.09472708
0.08808254
0.07877311
0.07324238
0.07540596
0.08244188
0.08948514
0.09431728
0.09651828
0.09597832
0.09261294
0.08630167
0.07693206
0.06457347
0.04979777
0.03400607
0.01939955
0.008103789
0.1019517
0.09722422
0.09284114
0.08864463
0.08545986
0.08373675
0.08365997
0.08526868
0.08835292
0.09226302
0.09582612
0.09750947
0.09583673
0.09010562
0.08187345
0.07676349
0.07836047
0.08443978
0.09085988
0.09529974
0.09729091
0.09670506
0.09346572
0.08747258
0.07861962
0.06690626
0.05264771
0.03667279
0.02040581
0.006338835
0.1019519
0.09722492
0.09284232
0.08864633
0.08546249
0.08374219
0.08367373
0.08530447
0.08844193
0.09247272
0.09629469
0.09850111
0.09780821
0.09370699
0.08754246
0.08337214
0.0840456
0.08842255
0.09353775
0.09711533
0.09853067
0.09755266
0.09404795
0.08788283
0.07892856
0.0671652
0.05288422
0.03687508
0.02050267
0.006248012
0.1019526
0.09722704
0.0928458
0.08865045
0.08546836
0.08375598
0.08370877
0.08538453
0.08860983
0.09280971
0.09695861
0.09978902
0.1002286
0.09795661
0.09403755
0.0910715
0.09105911
0.09369571
0.09714028
0.09952555
0.1000726
0.09840252
0.09427317
0.0874667
0.07780106
0.06528216
0.05040147
0.03444334
0.01951451
0.007930627
0.1019551
0.09723487
0.09285883
0.08866508
0.08548308
0.08377926
0.08376049
0.08549694
0.08883395
0.09323164
0.09773141
0.1011814
0.1026665
0.1019594
0.0998401
0.09795763
0.09767423
0.09905685
0.1010135
0.102152
0.101686
0.09912109
0.0941019
0.08632532
0.07560354
0.06212737
0.04688667
0.03186857
0.01918043
0.009380221
0.1019618
0.0972566
0.0928949
0.08870502
0.08551619
0.08381346
0.08382096
0.08562246
0.08908069
0.09368494
0.09852691
0.1025337
0.1048824
0.1053686
0.1045482
0.1035135
0.1032074
0.1037974
0.1046074
0.1046336
0.1031384
0.09957327
0.09350208
0.08458504
0.07274371
0.05856893
0.04376646
0.03073731
0.02017328
0.01031371
0.1019762
0.09730438
0.09297506
0.0887899
0.08557832
0.08385984
0.08388119
0.0857394
0.08931309
0.09411563
0.0992734
0.1037591
0.1067926
0.1081569
0.1082498
0.1078419
0.1076081
0.1076992
0.1076577
0.1067376
0.1042581
0.0996573
0.09246693
0.08239443
0.06962071
0.05531149
0.04180742
0.03120273
0.02257474
0.01094961
0.1020041
0.09739868
0.09313071
0.08892863
0.08567267
0.08392046
0.0839367
0.08583144
0.08950064
0.09448019
0.09992037
0.104815
0.1083933
0.1104092
0.1111509
0.1111963
0.1110441
0.1107875
0.1100878
0.1083481
0.104943
0.09931681
0.09103077
0.07994556
0.06663535
0.05285332
0.0411615
0.03268518
0.02517627
0.01138216
0.1020409
0.09752093
0.09333415
0.08912976
0.08581988
0.08401062
0.08399331
0.08589382
0.08962739
0.09475345
0.1004409
0.1056884
0.1097126
0.1122286
0.1134435
0.1138114
0.1137071
0.113161
0.1119021
0.1094153
0.1051256
0.09851317
0.08922434
0.07736819
0.06398229
0.05130335
0.04172019
0.03489961
0.02743419
0.01168151
0.1020835
0.09766287
0.09357458
0.08939536
0.08603975
0.08415758
0.08407575
0.08594325
0.08970001
0.09493346
0.1008308
0.1063862
0.1107878
0.1137034
0.1152723
0.1158601
0.1157451
0.1149059
0.1131094
0.1098922
0.1047369
0.09720824
0.0871071
0.07487218
0.06199505
0.05089281
0.04328954
0.03763784
0.02935715
0.01188908
0.1021308
0.09782535
0.09386379
0.08975368
0.08637761
0.08441495
0.08423484
0.08602076
0.08974721
0.09503782
0.101102
0.1069245
0.1116529
0.1148977
0.1167333
0.1174522
0.1172488
0.1160616
0.1136842
0.1097014
0.1036881
0.09536966
0.0848342
0.0728531
0.0611842
0.05191707
0.04579357
0.04052521
0.03095891
0.0120192
0.1021884
0.09803722
0.09426786
0.09030481
0.08694115
0.08488088
0.08454861
0.08618119
0.08980361
0.09508676
0.1012671
0.1073164
0.1123304
0.1158505
0.1178819
0.1186473
0.1182572
0.1166222
0.1135611
0.108731
0.1018743
0.09300769
0.08260809
0.07174445
0.06202662
0.05475503
0.0495546
0.04369947
0.03240927
0.01206316
0.1022874
0.09841084
0.09498539
0.09128875
0.08792693
0.08568339
0.08507959
0.08644021
0.08986047
0.09506466
0.1013135
0.1075567
0.1128248
0.1165779
0.1187443
0.119473
0.1187814
0.1165611
0.1126625
0.1068641
0.09920023
0.09015465
0.0806809
0.07196203
0.06497016
0.05990804
0.05522552
0.04798176
0.03425881
0.01202788
0.1025311
0.0992467
0.09643434
0.09307568
0.08955077
0.08684173
0.08571634
0.08663965
0.08977176
0.09486444
0.1011752
0.1076101
0.1131209
0.1170785
0.1193305
0.119947
0.1188375
0.1158788
0.110959
0.1040486
0.0956376
0.08687277
0.07920882
0.07363834
0.07007941
0.06748001
0.06335957
0.05456871
0.03772871
0.01211709
0.1031967
0.10112
0.09912247
0.09580837
0.09152587
0.0877773
0.08583707
0.08626647
0.08918195
0.09427422
0.1007426
0.1074259
0.1131962
0.1173447
0.1196482
0.1200996
0.1184875
0.1146691
0.1085697
0.1004174
0.09131825
0.08323776
0.07809313
0.07645901
0.07682402
0.07684252
0.07380397
0.06446261
0.04460091
0.01306789
0.1047244
0.1041923
0.1023461
0.09824504
0.09231962
0.08694011
0.08430821
0.08464135
0.08774986
0.09315863
0.09998083
0.107002
0.1130495
0.1173729
0.1197062
0.1199814
0.1178673
0.1131895
0.1058917
0.09647061
0.08670838
0.07945463
0.07721283
0.08045325
0.08493596
0.08722207
0.08590662
0.07819658
0.05721094
0.01609432
0.1064493
0.1061659
0.1043538
0.1008595
0.09348016
0.08386991
0.08117086
0.08219531
0.08598522
0.091927
0.09914266
0.1064484
0.112689
0.1171161
0.1194531
0.1195988
0.1171379
0.1118586
0.1036899
0.09329489
0.08292396
0.07614505
0.07681738
0.09005399
0.09676618
0.09895524
0.09890829
0.09547609
0.07965831
0.02227196
0.1063599
0.1058411
0.103778
0.09967388
0.09030607
0.08327193
0.08146927
0.08286759
0.08670972
0.09246672
0.09928617
0.1060113
0.1115615
0.1153247
0.1172196
0.1173848
0.1156481
0.1116714
0.1049992
0.09567675
0.08537169
0.07754925
0.07584996
0.08211258
0.09405951
0.09765805
0.09798397
0.09509709
0.0804731
0.02244337
0.1043289
0.1031383
0.1009454
0.09670504
0.09100385
0.08633589
0.0842564
0.08490469
0.08811334
0.09340479
0.0998737
0.1063168
0.111637
0.1152299
0.1170395
0.1172533
0.1157944
0.1123803
0.1065918