/*--------------------------------*- C++ -*----------------------------------*\
| =========                 |                                                 |
| \\      /  F ield         | OpenFOAM: The Open Source CFD Toolbox           |
|  \\    /   O peration     | Version:  2506                                  |
|   \\  /    A nd           | Website:  www.openfoam.com                      |
|    \\/     M anipulation  |                                                 |
\*---------------------------------------------------------------------------*/
FoamFile
{
    version     2.0;
    format      ascii;
    arch        "LSB;label=32;scalar=64";
    class       surfaceScalarField;
    location    "50/airRegion";
    object      phi;
}
// * * * * * * * * * * * * * * * * * * * * * * * * * * * * * * * * * * * * * //

dimensions      [1 0 -1 0 0 0 0];

oriented        oriented;

internalField   nonuniform List<scalar> 
257196
(
0.01233808
0.001261178
0.0007331667
0.01306561
0.002506388
0.0008853715
0.0148994
0.00351176
0.0005313494
0.01964462
0.002641883
-0.0002477309
0.03273904
-0.004515436
-0.005045015
0.05168975
-0.01048197
-0.01478101
0.06352965
-0.0123998
-0.0229575
0.06902903
-0.01628457
-0.03262769
0.06952191
-0.02106959
-0.04213448
0.06593729
-0.02595495
-0.05057454
0.0591608
-0.03039317
-0.05742482
0.04997913
-0.0340498
-0.06247151
0.03903745
-0.0367779
-0.06574725
0.02687177
-0.03852585
-0.06740201
0.01397402
-0.03924265
-0.06757993
0.0008396113
-0.03878919
-0.06630519
-0.01159962
-0.03684853
-0.0633696
-0.02244385
-0.03356761
-0.05901881
-0.03110663
-0.02916229
-0.0532737
-0.03675367
-0.02380069
-0.04596841
-0.03831152
-0.01776875
-0.03690972
-0.03456681
-0.01175794
-0.02621137
-0.0251337
-0.006898354
-0.01481098
-0.01717603
0.0008737267
-0.004405629
-0.01240318
0.00871344
-0.002325055
-0.009850754
0.00885255
-0.00051804
-0.008547356
0.007970029
0.001889987
-0.007267802
0.00769507
0.003817821
-0.004826141
0.007358666
0.004929422
0.0015186
-6.305074e-05
0.02326298
0.0009829055
0.002064831
0.02543013
0.001945256
0.001899612
0.03006424
0.002550751
-0.0007135416
0.03947904
-0.000554012
-0.005966792
0.05173861
-0.007030642
-0.01056744
0.06150771
-0.01172234
-0.01611687
0.06850461
-0.01421243
-0.02507057
0.07146021
-0.01696427
-0.03514186
0.07049292
-0.02018284
-0.04488714
0.06609823
-0.02353768
-0.05346914
0.05891557
-0.02666623
-0.06039506
0.04958469
-0.02929684
-0.06549833
0.03866082
-0.03127165
-0.06885009
0.02661875
-0.03250865
-0.0706191
0.01389988
-0.03293913
-0.07094978
0.0009665854
-0.0324384
-0.06985864
-0.01138271
-0.03077248
-0.06712269
-0.02240592
-0.02804263
-0.06294775
-0.03161947
-0.02440406
-0.05740881
-0.03839655
-0.02005802
-0.0503876
-0.04199614
-0.0152702
-0.04171133
-0.04194818
-0.01039772
-0.03149711
-0.03913192
-0.005541309
-0.02073288
-0.03340943
0.0007109818
-0.01195309
-0.02538275
0.006740582
-0.008053321
-0.01935085
0.007192133
-0.002912768
-0.01573288
0.006995136
0.0045761
-0.01238456
0.006662252
0.01106074
-0.006583583
0.005992201
0.01803876
0.0009096153
0.02702953
0.02867908
0.0006512245
0.003104639
0.03215305
0.001206932
0.002565844
0.03978707
0.001114383
-0.002798932
0.05107635
-0.002010701
-0.009086105
0.06138274
-0.007458237
-0.01305941
0.06857392
-0.01127614
-0.01902367
0.07273656
-0.01375737
-0.02814739
0.07362141
-0.01601009
-0.03846161
0.07130675
-0.01838214
-0.04850511
0.06613547
-0.02078231
-0.05733245
0.05859163
-0.02301412
-0.06443922
0.04918084
-0.02489589
-0.06969656
0.03835939
-0.0263007
-0.0732154
0.02652797
-0.0271469
-0.07518395
0.0140613
-0.02735886
-0.07574522
0.001345744
-0.02681794
-0.07490611
-0.0109402
-0.02533787
-0.07244948
-0.02217394
-0.02296148
-0.06851992
-0.03198319
-0.01979447
-0.06323701
-0.03991196
-0.0160322
-0.05655349
-0.04539276
-0.01190215
-0.04834693
-0.04790218
-0.007628579
-0.03871463
-0.04712859
-0.003255348
-0.02841408
-0.04199656
0.001447205
-0.01927075
-0.03225956
0.005453327
-0.01339622
-0.02418932
0.006095487
-0.005093519
-0.01856001
0.006126967
0.006869833
-0.01319805
0.00549461
0.01813698
-0.005050955
0.004683434
0.03040262
0.001391058
0.04596363
0.0313967
0.0003846533
0.003729037
0.03538477
0.0006928455
0.002890834
0.04376019
0.0004251496
-0.004029243
0.05600023
-0.003043683
-0.01095257
0.06618531
-0.007540031
-0.0152814
0.0724727
-0.01032411
-0.02180075
0.0752797
-0.01238582
-0.03132342
0.074942
-0.01427107
-0.04199728
0.0717336
-0.01613467
-0.05234515
0.06603012
-0.01794104
-0.06140571
0.05826814
-0.0195852
-0.0686946
0.04887768
-0.02095495
-0.07412475
0.03823949
-0.02196024
-0.07784048
0.02668536
-0.02253027
-0.08004243
0.01452226
-0.02258488
-0.08086561
0.002062337
-0.02200259
-0.08030317
-0.01012494
-0.02062127
-0.07814676
-0.02149799
-0.01843103
-0.07446577
-0.03173671
-0.01551564
-0.06942296
-0.04047101
-0.01206694
-0.06304758
-0.04718756
-0.008300763
-0.05527163
-0.05121021
-0.004442539
-0.04613337
-0.05166538
-0.0006799144
-0.03606478
-0.04713613
0.002714931
-0.02622291
-0.03680783
0.005011888
-0.01848389
-0.02718651
0.005660304
-0.00768536
-0.01969435
0.005403743
0.007780499
-0.01297605
0.004362415
0.02335305
-0.003961612
0.003468144
0.03934598
0.001238002
0.05730344
0.03288368
0.0001899737
0.003999504
0.03740608
0.0002241467
0.002798578
0.04694069
-0.0004324253
-0.005667123
0.05998263
-0.00329661
-0.01253422
0.06919699
-0.006534506
-0.01643171
0.07455258
-0.008880982
-0.02418233
0.07655667
-0.0106871
-0.0343865
0.07552846
-0.01229339
-0.04544642
0.0718181
-0.01380583
-0.056042
0.06584199
-0.01521506
-0.06527038
0.0580274
-0.01646471
-0.07269524
0.04876361
-0.0174864
-0.07827349
0.03837853
-0.01821841
-0.08217715
0.02714619
-0.01859874
-0.08461088
0.01531365
-0.0185407
-0.08569465
0.003131099
-0.01791195
-0.08540419
-0.008921425
-0.01656246
-0.08354017
-0.02034369
-0.01444668
-0.08009309
-0.03081554
-0.01166069
-0.07526943
-0.04000805
-0.008400382
-0.06916887
-0.04745195
-0.004881215
-0.0617758
-0.05244593
-0.001349965
-0.05308065
-0.05397902
0.001910303
-0.04323263
-0.05056454
0.004437059
-0.03273093
-0.04087912
0.005564654
-0.0230352
-0.02981147
0.005690452
-0.0110551
-0.02042902
0.004706765
0.006731408
-0.01272857
0.003409536
0.02595376
-0.003330427
0.002459765
0.0444633
0.0008996311
0.06342922
0.03362465
8.593938e-05
0.004041738
0.03822837
-1.880187e-06
0.002555127
0.04781969
-0.0008116229
-0.006581498
0.06098185
-0.003305022
-0.01394483
0.07018371
-0.005709994
-0.01821544
0.07528619
-0.00757198
-0.02657589
0.07695968
-0.009067905
-0.03724467
0.07561474
-0.01039366
-0.04860543
0.07168764
-0.01161871
-0.05938411
0.06564318
-0.01273635
-0.06872455
0.05791347
-0.01370815
-0.07624391
0.04886498
-0.01448899
-0.08194422
0.03878569
-0.01503436
-0.08601968
0.02790238
-0.01528612
-0.08867332
0.01641091
-0.01514622
-0.09000404
0.004512605
-0.01446536
-0.08996462
-0.007384361
-0.01310113
-0.08836591
-0.01878828
-0.01099439
-0.08512961
-0.02934378
-0.008285634
-0.08050626
-0.03874239
-0.005176056
-0.07465213
-0.0465647
-0.001876101
-0.06759569
-0.05216759
0.001358401
-0.05931163
-0.05455567
0.004223343
-0.04974751
-0.05251969
0.006310463
-0.03894395
-0.04498668
0.007131551
-0.02736396
-0.0324293
0.006543801
-0.01537925
-0.02113349
0.00386455
0.003938726
-0.0126634
0.002768407
0.02620344
-0.003084688
0.001805455
0.04647053
0.0006578514
0.06609754
0.03404296
5.583822e-05
0.003951315
0.03863915
-3.790448e-05
0.002181355
0.04819692
-0.0009023596
-0.00739806
0.06133067
-0.003177171
-0.01517774
0.0705082
-0.005047855
-0.01985508
0.07548487
-0.006461096
-0.02868437
0.07697927
-0.007624495
-0.03973659
0.07548389
-0.008681172
-0.05134968
0.07149545
-0.009666571
-0.06226915
0.06550637
-0.01056196
-0.07168775
0.05794928
-0.0113321
-0.0792791
0.04917003
-0.01194305
-0.08508734
0.03942333
-0.0123604
-0.08932524
0.02889416
-0.01252629
-0.09218984
0.01773412
-0.01232739
-0.0937523
0.006106069
-0.01159224
-0.0939336
-0.005639547
-0.01018392
-0.09255472
-0.01699407
-0.008054583
-0.08949533
-0.02754656
-0.005414877
-0.08505584
-0.03700544
-0.002462073
-0.0794321
-0.04501005
0.0006112334
-0.0726803
-0.05099519
0.003563774
-0.06475155
-0.05404088
0.006090494
-0.05550263
-0.05280699
0.00777548
-0.04483137
-0.04579626
0.008127341
-0.03284173
-0.03292492
0.006887002
-0.01998898
-0.0216342
0.003765396
0.0009542349
-0.01288041
0.002699152
0.02472483
-0.003154632
0.001541573
0.04634214
0.0005737179
0.06668907
0.0344191
6.666662e-05
0.003787483
0.03905238
4.160955e-05
0.001728528
0.04864762
-0.0008727129
-0.008147879
0.06172591
-0.00298837
-0.01616476
0.07077089
-0.004441857
-0.02116751
0.07557354
-0.005464683
-0.03040746
0.07691269
-0.006335691
-0.04180145
0.07533061
-0.00716879
-0.05363177
0.07135271
-0.007965596
-0.06466661
0.06547848
-0.008692904
-0.07414974
0.05813229
-0.009314583
-0.08180875
0.04963822
-0.009803523
-0.08772436
0.04021953
-0.01013177
-0.09212575
0.03002228
-0.01024105
-0.09520137
0.01915765
-0.01000228
-0.09698461
0.007759326
-0.009219047
-0.09734888
-0.00386352
-0.007758528
-0.09612351
-0.01516203
-0.005608337
-0.09319388
-0.02566277
-0.00306104
-0.08892482
-0.03509978
-0.0002936191
-0.08353215
-0.04317293
0.002537461
-0.07707929
-0.04943419
0.005226194
-0.0694768
-0.05308707
0.007479015
-0.06057573
-0.05277273
0.008858301
-0.05016154
-0.04663219
0.008806958
-0.03817278
-0.03413673
0.007102139
-0.02501244
-0.02261012
0.004380439
-0.003665022
-0.01349645
0.003148758
0.02186996
-0.003492834
0.001589736
0.04483705
0.0006216651
0.06614665
0.03483568
9.232295e-05
0.003593275
0.0395711
0.0001735693
0.001276742
0.0492838
-0.000805423
-0.008784054
0.06228873
-0.002778965
-0.01686967
0.07111757
-0.003833171
-0.02213706
0.07570406
-0.004525902
-0.03174633
0.07689325
-0.005172219
-0.04343762
0.07525273
-0.005839549
-0.05545223
0.07131429
-0.006495292
-0.06658833
0.06557167
-0.007095754
-0.07613802
0.05843509
-0.007604908
-0.0838738
0.050207
-0.008001457
-0.08990722
0.04108048
-0.008262833
-0.09448234
0.03116348
-0.008331729
-0.09777897
0.02052951
-0.008069624
-0.09977959
0.009293858
-0.007259512
-0.1002838
-0.002249208
-0.005773588
-0.09912622
-0.01348638
-0.003649565
-0.09626732
-0.02389104
-0.001249288
-0.092158
-0.03323782
0.00129143
-0.0870177
-0.04130031
0.003863162
-0.08087088
-0.04776365
0.006307687
-0.07362895
-0.0520098
0.008366666
-0.06511528
-0.05284457
0.009625357
-0.05502055
-0.04822436
0.009396466
-0.04312358
-0.03664826
0.007239696
-0.02982338
-0.02474036
0.005341723
-0.008945249
-0.01469997
0.00401635
0.01756945
-0.004134638
0.001838502
0.04228722
0.0007364967
0.06490828
0.03533358
0.0001092582
0.003396682
0.04031534
0.0003238951
0.0007366896
0.05024317
-0.000743235
-0.00924174
0.06306963
-0.002513535
-0.01722016
0.0715655
-0.003152679
-0.02277911
0.07590948
-0.003613736
-0.03273342
0.07696382
-0.00411819
-0.04467175
0.07528291
-0.004669586
-0.05683765
0.07139094
-0.005219013
-0.06806861
0.06576887
-0.005718271
-0.07769572
0.05881256
-0.006135106
-0.08552381
0.05080446
-0.006452317
-0.09168959
0.04190919
-0.006652258
-0.09645125
0.03219803
-0.006682953
-0.09998185
0.02170873
-0.00640982
-0.1022012
0.01055336
-0.005615927
-0.1028003
-0.0009505501
-0.004182662
-0.1016189
-0.01210595
-0.002189427
-0.09877211
-0.02236011
-1.794949e-05
-0.09481828
-0.03153552
0.002244832
-0.08995026
-0.0394974
0.004532357
-0.08415249
-0.0460471
0.006730717
-0.07732411
-0.05076792
0.00863852
-0.06927943
-0.05279121
0.009939436
-0.05965837
-0.05068637
0.01015508
-0.04790065
-0.0429925
0.008938751
-0.03347859
-0.02992899
0.00692432
-0.01550405
-0.0167192
0.003716788
0.01100515
-0.005001676
0.00201981
0.03863403
0.0009197866
0.06292717
0.03605019
-1.798154e-06
0.003194894
0.04208574
-0.0001280765
-0.0001662236
0.05237688
-0.0005431689
-0.009601565
0.06421048
-0.001375687
-0.0169226
0.0721021
-0.002162358
-0.02307928
0.0761759
-0.002691359
-0.03340442
0.07711452
-0.00315679
-0.0455453
0.07540948
-0.003632714
-0.05783245
0.07155994
-0.004094393
-0.06915442
0.06603364
-0.004504003
-0.07886985
0.05921327
-0.004834
-0.08680309
0.05136577
-0.005071078
-0.0931085
0.04263152
-0.005200948
-0.09805801
0.03304866
-0.00518191
-0.1018212
0.02262276
-0.004905101
-0.1042498
0.0114769
-0.004191491
-0.1049025
-4.503152e-06
-0.002941009
-0.1036361
-0.01104222
-0.001232531
-0.1007756
-0.02109057
0.0006132214
-0.09698538
-0.03003699
0.002545367
-0.09241007
-0.03782144
0.004514104
-0.0869901
-0.04432906
0.006432149
-0.08060686
-0.04927985
0.008144439
-0.0730942
-0.05200946
0.009417744
-0.0641301
-0.05117468
0.009901237
-0.05312957
-0.04469
0.009165589
-0.0393498
-0.03147671
0.007116248
-0.0221768
-0.01826794
0.004067049
0.004955513
-0.005967936
0.00263986
0.03382154
0.001337031
0.05990499
0.03596817
-1.812545e-05
0.003151995
0.04142354
-0.0001299078
-2.438347e-05
0.05155717
-0.0003898052
-0.009862928
0.06411397
-0.0009756667
-0.01756726
0.07225234
-0.001501709
-0.02348784
0.0763553
-0.001925063
-0.03386333
0.07728845
-0.002317245
-0.04610847
0.07559204
-0.002710322
-0.05849058
0.07178005
-0.003083458
-0.06990073
0.06632002
-0.003403118
-0.07970671
0.05959059
-0.003644453
-0.08774334
0.05184884
-0.003794122
-0.09417544
0.04321853
-0.003840447
-0.09928563
0.03371282
-0.003757521
-0.1032409
0.02331251
-0.003483307
-0.1058383
0.01215707
-0.002917808
-0.1065292
0.0007160553
-0.001990735
-0.1052025
-0.0101802
-0.0007235085
-0.1023655
-0.02001286
0.000701484
-0.09874873
-0.0287248
0.00224718
-0.09446609
-0.03631332
0.003852415
-0.08941261
-0.0427256
0.005438603
-0.08346153
-0.04779227
0.006885663
-0.07647714
-0.05105144
0.008024336
-0.06820834
-0.05136574
0.008589608
-0.0581471
-0.04641242
0.008090741
-0.04555441
-0.03412043
0.006138136
-0.02968939
-0.02070935
0.004787251
-0.003309611
-0.007483293
0.003781301
0.02699307
0.002033859
0.05528672
0.03599098
-1.576681e-05
0.003116182
0.04142738
-8.482902e-05
-0.0001280374
0.05155128
-0.0002537504
-0.01001815
0.06416674
-0.0006382114
-0.01778414
0.07237951
-0.0009773972
-0.02370545
0.07651198
-0.001280424
-0.03413041
0.07745872
-0.001578689
-0.04644031
0.07577928
-0.001877257
-0.05888991
0.07199439
-0.002154647
-0.07037177
0.06657488
-0.002381184
-0.0802539
0.0599012
-0.002532607
-0.08837159
0.05222794
-0.002592906
-0.09489185
0.04367293
-0.002551199
-0.100104
0.03423802
-0.002399409
-0.1041786
0.02389144
-0.002134517
-0.1068936
0.01277995
-0.001759509
-0.1076532
0.001417279
-0.001244187
-0.1063629
-0.009352717
-0.0005212732
-0.1036246
-0.01902309
0.0004013498
-0.100179
-0.0275587
0.001496874
-0.09614532
-0.0349911
0.002675611
-0.09139996
-0.04131079
0.003857896
-0.08582017
-0.04644165
0.004956313
-0.07930314
-0.05014795
0.00586904
-0.07167267
-0.05177165
0.00646533
-0.06252425
-0.04983723
0.00655943
-0.051034
-0.04216824
0.006048747
-0.03582689
-0.02739112
0.005181562
-0.01457088
-0.01030669
0.003541945
0.01654476
0.002537668
0.04828682
0.0360033
-9.999029e-06
0.003100123
0.0414447
-4.694875e-05
-0.0001831076
0.05157414
-0.000138433
-0.01010125
0.06421524
-0.0003473822
-0.01788325
0.07246376
-0.000538297
-0.0238182
0.07662396
-0.0007233663
-0.03426736
0.07758762
-0.0009139586
-0.04661027
0.07591937
-0.001105964
-0.05910119
0.0721452
-0.001280704
-0.07063145
0.06674144
-0.001413421
-0.08056299
0.06009424
-0.001480088
-0.08872365
0.05246438
-0.001460923
-0.09527709
0.04397543
-0.00134412
-0.1005152
0.03463431
-0.001136611
-0.1046206
0.02441058
-0.0008901301
-0.1073967
0.01343862
-0.0007057126
-0.1082736
0.002207553
-0.0005999954
-0.1071418
-0.008472684
-0.0004342307
-0.104582
-0.01807659
-6.27378e-05
-0.1012843
-0.02653888
0.0005128707
-0.09741873
-0.03389569
0.001183937
-0.09288155
-0.0401569
0.00186994
-0.08756574
-0.04529462
0.002510139
-0.08139778
-0.04919919
0.003052733
-0.07427262
-0.0515032
0.003446077
-0.06593936
-0.05111583
0.003636232
-0.05580997
-0.04544009
0.003610469
-0.04275172
-0.03123807
0.003289882
-0.02482475
-0.01332537
0.002720289
0.005953012
0.002397784
0.03833864
0.03600747
-2.920729e-06
0.00309489
0.04145062
-1.197454e-05
-0.0002030313
0.0515823
-3.414641e-05
-0.01013361
0.06423666
-8.67238e-05
-0.01792097
0.0725027
-0.0001438116
-0.02386098
0.07667452
-0.0002101477
-0.03431844
0.07764069
-0.0002853876
-0.04667538
0.07596647
-0.0003636726
-0.05918632
0.07218026
-0.0004329623
-0.07073832
0.06676361
-0.00047521
-0.08068555
0.06011049
-0.0004680154
-0.08884602
0.05249354
-0.0003886365
-0.09537542
0.04405262
-0.0002234556
-0.1005637
0.03481621
1.077648e-05
-0.1046088
0.02477148
0.0002255434
-0.107377
0.014026
0.0002546095
-0.1083931
0.00298217
3.183729e-05
-0.1075124
-0.007630146
-0.0002863644
-0.1051906
-0.01724992
-0.0004677436
-0.1020081
-0.02574127
-0.0004689593
-0.09821342
-0.03311795
-0.0003836673
-0.09375914
-0.03939122
-0.000279698
-0.08856376
-0.04455702
-0.0001884392
-0.08257237
-0.04857612
-0.0001184157
-0.07571858
-0.05128232
-6.773997e-05
-0.06784946
-0.05205851
-2.836953e-05
-0.05859922
-0.04887888
1.501966e-05
-0.04728022
-0.03780225
6.901067e-05
-0.03259801
-0.0182444
9.981596e-05
-0.007009008
8.525393e-05
0.02622932
0.03600807
4.259965e-06
0.003095999
0.04145011
2.322676e-05
-0.0001997781
0.05157997
7.066287e-05
-0.01012928
0.06423084
0.0001753892
-0.01791567
0.07249011
0.0002532096
-0.02385561
0.07664954
0.0003071625
-0.03431446
0.07759569
0.0003489284
-0.04667384
0.07589206
0.000385547
-0.05918609
0.07206665
0.000421235
-0.07073403
0.06660329
0.0004654981
-0.08066463
0.05990286
0.0005366919
-0.0887867
0.05225141
0.0006579839
-0.09524572
0.04381207
0.0008436639
-0.100324
0.03464676
0.001071318
-0.1042304
0.02477392
0.001236856
-0.1069071
0.0142791
0.001150756
-0.1080188
0.003457439
0.0007068191
-0.1074083
-0.007072291
2.034049e-05
-0.105344
-0.01673036
-0.0006670342
-0.1022505
-0.02530315
-0.001262652
-0.09843968
-0.0327633
-0.001804416
-0.0939416
-0.0391066
-0.002325406
-0.08870808
-0.04432758
-0.002819517
-0.08269282
-0.0483917
-0.003251399
-0.07583056
-0.05114393
-0.003569002
-0.06797005
-0.05199065
-0.003708916
-0.05875623
-0.04894228
-0.003636255
-0.0475309
-0.03804102
-0.003265231
-0.03304664
-0.01845729
-0.00262553
-0.007782203
-0.002301865
0.02559341
0.03600535
1.039966e-05
0.003103334
0.0414434
6.241206e-05
-0.0001738985
0.05156782
0.0001872114
-0.01008867
0.06419864
0.0004700467
-0.01786777
0.07242685
0.0006995585
-0.02380302
0.07655032
0.0008763584
-0.03425746
0.07745477
0.001031242
-0.04660946
0.07569944
0.00117902
-0.05910702
0.0718087
0.00131781
-0.0706288
0.06626543
0.001447197
-0.08051693
0.05947442
0.001578778
-0.08857311
0.05173451
0.001732666
-0.09493275
0.04323248
0.001921395
-0.09986742
0.03406516
0.002118931
-0.1035903
0.024286
0.002220302
-0.1061099
0.01397846
0.002041636
-0.1072292
0.0033603
0.001451889
-0.106811
-0.007055661
0.000498298
-0.1049514
-0.01671864
-0.0006173217
-0.1019192
-0.02536889
-0.001770448
-0.09803315
-0.03293198
-0.002921026
-0.0933903
-0.03937385
-0.004046304
-0.08797649
-0.04466102
-0.005090582
-0.08174587
-0.04869825
-0.005965354
-0.07459853
-0.05115435
-0.006545909
-0.06628956
-0.0509957
-0.006650365
-0.05625594
-0.04564119
-0.006163287
-0.04342008
-0.03167668
-0.005260637
-0.02589233
-0.01369914
-0.003604144
0.004923688
-0.00255332
0.03723229
0.03599578
1.251838e-05
0.003121082
0.04142668
0.0001100502
-0.0001140044
0.05154286
0.0003255012
-0.009999115
0.06414167
0.0008135867
-0.01776048
0.07232168
0.001235468
-0.02368365
0.07639505
0.001541238
-0.03411976
0.07724671
0.0018002
-0.04644894
0.0754268
0.002052586
-0.05891621
0.07145261
0.002292792
-0.07039489
0.06580349
0.002510063
-0.08022367
0.05888581
0.00270646
-0.0881991
0.05100862
0.002895612
-0.09444766
0.04237977
0.003084572
-0.09923034
0.03312786
0.003244814
-0.1027646
0.02334099
0.003276763
-0.1051083
0.01311631
0.003012345
-0.1061611
0.00263146
0.002307868
-0.1058103
-0.007670013
0.001144119
-0.1040346
-0.01730077
-0.000321988
-0.1010001
-0.02600053
-0.001957353
-0.09698887
-0.03365628
-0.003647109
-0.09213014
-0.04019396
-0.005301416
-0.08643215
-0.04552441
-0.006803015
-0.07983771
-0.04943101
-0.007989947
-0.07218341
-0.05130255
-0.008611039
-0.06307576
-0.0497088
-0.008193211
-0.05171168
-0.04239371
-0.006334767
-0.03676021
-0.02772924
-0.00497598
-0.01590743
-0.01058292
-0.003840813
0.01522101
-0.002083353
0.04710955
0.0359752
-4.31881e-06
0.003157804
0.04142753
0.0001039653
-6.40846e-06
0.05154812
0.0004886444
-0.009841313
0.06408311
0.001223482
-0.01754029
0.07217816
0.001912098
-0.02346498
0.07620353
0.002335669
-0.03385942
0.07701184
0.002683329
-0.04613689
0.07513065
0.003035796
-0.05855357
0.07106782
0.003379327
-0.06997693
0.06529842
0.003692381
-0.07973924
0.05822956
0.003965656
-0.08763031
0.05017967
0.004201938
-0.09376827
0.04137451
0.004400756
-0.09840538
0.03197027
0.00452933
-0.1017615
0.02208645
0.004494475
-0.1039274
0.01184194
0.004143518
-0.1048624
0.001399374
0.003330762
-0.1044693
-0.00882928
0.001981349
-0.1026512
-0.01842322
0.0002255472
-0.09953406
-0.02715367
-0.001803336
-0.09534902
-0.03487927
-0.003935437
-0.09022532
-0.04147329
-0.006017329
-0.08417729
-0.04674759
-0.00786751
-0.07712625
-0.05026483
-0.009248643
-0.06884075
-0.05094698
-0.009815616
-0.05882081
-0.04648662
-0.009151363
-0.04633803
-0.03464016
-0.007158205
-0.0306886
-0.02119183
-0.004182769
-0.004753403
-0.007766725
-0.002745211
0.02568377
-0.001403211
0.05422991
0.03605856
-0.0001161036
0.003200247
0.04208707
-0.0003497287
-0.0001500645
0.05236861
0.0006822718
-0.009579218
0.06417521
0.002367039
-0.0168977
0.07201447
0.002921741
-0.02306407
0.07599765
0.003292225
-0.03341711
0.07679117
0.003698833
-0.04560432
0.07487162
0.004150429
-0.05794544
0.07072937
0.004606799
-0.06930441
0.06483687
0.005030062
-0.07900081
0.05760511
0.005397611
-0.08681363
0.04936087
0.005699789
-0.09284995
0.04034683
0.005925199
-0.09735409
0.03074253
0.006035643
-0.1005463
0.02069491
0.005941788
-0.1025375
0.01034594
0.005502594
-0.1033199
-0.0001416228
0.004581384
-0.1028029
-0.01036645
0.003063025
-0.1008404
-0.01995387
0.001060248
-0.09756747
-0.02872066
-0.001278752
-0.0931665
-0.03649805
-0.00375466
-0.0877478
-0.0430987
-0.006160488
-0.08131776
-0.04821215
-0.008250638
-0.0737704
-0.0511797
-0.009697432
-0.06481017
-0.05067194
-0.0100262
-0.05386542
-0.04455879
-0.008894799
-0.0401991
-0.0315908
-0.006946656
-0.02320534
-0.01850525
-0.003823717
0.004006458
-0.006134064
-0.002105195
0.03282473
-0.0009761557
0.05912946
0.03533645
-9.96571e-05
0.003399483
0.04031183
-0.0001973173
0.0007428545
0.0502234
0.0007481222
-0.00923174
0.06302034
0.002640054
-0.01720962
0.07146138
0.003620452
-0.02278258
0.07571031
0.004239453
-0.03277259
0.07661254
0.004810901
-0.04476933
0.07470628
0.005406941
-0.0570066
0.07050621
0.006001827
-0.06829827
0.06449654
0.006557754
-0.07793723
0.05709788
0.007042108
-0.0856842
0.04864811
0.007432757
-0.09163253
0.03940522
0.007705983
-0.09601784
0.02956819
0.007816501
-0.09905921
0.01930539
0.007677126
-0.1008783
0.008775662
0.007156077
-0.1014829
-0.001820648
0.006123044
-0.1007858
-0.01210452
0.004452588
-0.09861571
-0.02174657
0.002244932
-0.09512705
-0.03057746
-0.0003374195
-0.09047873
-0.03839601
-0.003075704
-0.08475251
-0.04494395
-0.005720675
-0.07793438
-0.04976837
-0.007965723
-0.06989157
-0.05198801
-0.009381384
-0.06028995
-0.05015492
-0.009281054
-0.04857835
-0.04274857
-0.007219547
-0.0342234
-0.02988632
-0.005374766
-0.01633311
-0.01677907
-0.0040662
0.01025142
-0.00506747
-0.001883575
0.03799079
-0.0007729283
0.06246447
0.03483044
-7.442554e-05
0.0035914
0.03955835
-6.517207e-05
0.001273912
0.04925322
0.0008171814
-0.00878803
0.06222599
0.002854971
-0.01687737
0.07099923
0.004244844
-0.02216417
0.07549214
0.005210958
-0.03181483
0.07653357
0.006030325
-0.04357237
0.07467615
0.006821242
-0.05567099
0.07044229
0.007590524
-0.06688653
0.0643284
0.00830837
-0.07647659
0.0567662
0.008937243
-0.08417202
0.04810676
0.009442468
-0.09004653
0.03862268
0.009788073
-0.09432521
0.02852994
0.009921013
-0.09722503
0.01801421
0.00975468
-0.09887297
0.007249299
0.009164633
-0.09928352
-0.003521317
0.008024247
-0.09836209
-0.01393073
0.00622189
-0.09594725
-0.02368363
0.003846671
-0.09220964
-0.03260232
0.001069199
-0.08729273
-0.04043913
-0.001881622
-0.08126167
-0.04683466
-0.004730498
-0.07407447
-0.05113662
-0.007141568
-0.06559119
-0.05212904
-0.008661035
-0.05552213
-0.04774302
-0.008724229
-0.04364772
-0.03642229
-0.007096452
-0.03035819
-0.02466554
-0.00441382
-0.009512053
-0.01468299
-0.003181533
0.01708862
-0.004138024
-0.001617535
0.04192741
-0.0006427034
0.06469224
0.03440499
-6.441448e-05
0.003779853
0.03902992
1.347845e-05
0.001714027
0.04860627
0.0008465405
-0.008167133
0.06165066
0.003046645
-0.01618996
0.07064146
0.004863194
-0.0212147
0.07535707
0.00623554
-0.03049783
0.07656211
0.007368914
-0.04196107
0.07478716
0.008408513
-0.05388125
0.07055008
0.009394754
-0.06500772
0.06435301
0.01031149
-0.07455353
0.05663848
0.01111889
-0.0822088
0.04777078
0.01177095
-0.08802015
0.03803789
0.01221856
-0.09219962
0.0276719
0.01240073
-0.09496128
0.01687366
0.0122315
-0.09643607
0.005830593
0.01159192
-0.09663957
-0.005169759
0.01035693
-0.09546403
-0.01575958
0.008443253
-0.09278344
-0.02566529
0.005929884
-0.08878064
-0.03468126
0.002987062
-0.08358784
-0.04251156
-0.0001575829
-0.07725823
-0.04867829
-0.003218699
-0.06973406
-0.05235715
-0.005860838
-0.06088143
-0.05216543
-0.007652076
-0.05049857
-0.04621502
-0.008087965
-0.03852431
-0.03392632
-0.006896015
-0.02535788
-0.02251381
-0.003788336
-0.004032105
-0.01344966
-0.002724374
0.0215787
-0.003470696
-0.001565269
0.04463159
-0.0005847435
0.06604085
0.03401816
-9.578643e-05
0.003937589
0.03860485
-2.30265e-05
0.002155628
0.04814284
0.00075316
-0.007429678
0.06124189
0.003173675
-0.01521359
0.07036855
0.005533126
-0.01991078
0.0752675
0.007369547
-0.02877992
0.07664802
0.00885314
-0.03989842
0.07499422
0.01018013
-0.05160081
0.07079849
0.01142539
-0.06261805
0.06455575
0.01258538
-0.0721154
0.05671324
0.01361634
-0.07973361
0.04764814
0.01445814
-0.08548545
0.03766492
0.01504686
-0.08956623
0.02701266
0.01531281
-0.09218666
0.01590897
0.01517006
-0.09348137
0.00455636
0.01450467
-0.09346626
-0.006711109
0.01319067
-0.09201746
-0.01751317
0.01118103
-0.08906136
-0.02758749
0.008546828
-0.08478878
-0.03669642
0.005452793
-0.07931792
-0.04448809
0.002118551
-0.07267909
-0.05038325
-0.001179815
-0.06483312
-0.05343999
-0.00411848
-0.05564594
-0.05229975
-0.006274009
-0.0450213
-0.04544127
-0.00714313
-0.03306273
-0.03273613
-0.006570278
-0.02022279
-0.02154577
-0.003882557
0.0007128409
-0.01283552
-0.00278686
0.02449867
-0.003137194
-0.001822998
0.0461559
-0.0006596693
0.06654638
0.03358368
-0.0002009377
0.004022187
0.03817779
-0.000254172
0.00252215
0.04774654
0.0003695974
-0.006618032
0.06087288
0.003158797
-0.01397992
0.07002733
0.00635944
-0.01826318
0.07506288
0.008695703
-0.02665451
0.07664498
0.01050402
-0.03738084
0.07518134
0.0121217
-0.04882559
0.07110637
0.01366233
-0.05970327
0.06488664
0.01512266
-0.06913435
0.05696469
0.01644237
-0.07670626
0.04772911
0.01753732
-0.08239195
0.03750384
0.01832311
-0.0863661
0.02655983
0.01871925
-0.08883569
0.01513652
0.01863925
-0.08993913
0.003457891
0.01797279
-0.08969343
-0.008089328
0.01659
-0.08795855
-0.01910043
0.01448434
-0.084724
-0.02931516
0.0117262
-0.08018044
-0.03846216
0.008475475
-0.07442441
-0.04612887
0.004941042
-0.06745869
-0.05166359
0.00137568
-0.05925383
-0.05405914
-0.001926115
-0.04976433
-0.05209682
-0.00448812
-0.03903198
-0.04468868
-0.005629464
-0.02751381
-0.03226648
-0.005735742
-0.01557582
-0.02106322
-0.00471966
0.003735744
-0.01263381
-0.003416053
0.0259695
-0.003083939
-0.002464095
0.04624
-0.0008930025
0.06586885
0.03282108
-0.000395936
0.003975007
0.03732919
-0.00072369
0.002759765
0.04683405
-0.0004907847
-0.005700336
0.05983963
0.002905541
-0.01255672
0.06900581
0.007360901
-0.01645588
0.07430311
0.01015045
-0.02422319
0.07623811
0.01222595
-0.03447229
0.07513248
0.01412379
-0.04560731
0.07133565
0.01601181
-0.05630004
0.06526329
0.0178664
-0.06562798
0.05734756
0.0195816
-0.07312762
0.0479921
0.02102975
-0.07872802
0.03754827
0.02209606
-0.08257942
0.02631809
0.02268696
-0.08488297
0.01457287
0.02271426
-0.08578066
0.002570124
0.02206901
-0.0852927
-0.009239225
0.0206111
-0.08326314
-0.0204101
0.01837861
-0.07974935
-0.03067139
0.01545613
-0.07493332
-0.03971215
0.01200489
-0.06887592
-0.04706401
0.008227849
-0.06154488
-0.05201942
0.004348292
-0.05292668
-0.05356467
0.0005639065
-0.04316897
-0.0502184
-0.002836503
-0.03276188
-0.04065421
-0.005109896
-0.0231496
-0.02969216
-0.005702603
-0.01124462
-0.02037861
-0.005407194
0.006514844
-0.01271355
-0.004354622
0.02570285
-0.003342061
-0.003456955
0.04419792
-0.001223865
0.06315192
0.03130683
-0.0006603873
0.003701852
0.03527551
-0.001234221
0.00285002
0.0436121
-0.001171944
-0.004061017
0.05580728
0.001873126
-0.01095694
0.0659345
0.007277875
-0.0152662
0.07216187
0.01111603
-0.02178595
0.07491929
0.01361369
-0.03134209
0.07454515
0.0158696
-0.04208148
0.0713108
0.01825104
-0.05252242
0.06558594
0.02068714
-0.06168843
0.05780562
0.02298438
-0.06907138
0.04840697
0.02494508
-0.07455627
0.03778501
0.02641645
-0.07826382
0.02628755
0.02729162
-0.08038468
0.01423159
0.02748182
-0.08106366
0.001924328
0.02687598
-0.0803243
-0.01010085
0.02531044
-0.07799568
-0.0213345
0.0228702
-0.07420215
-0.03146968
0.01967477
-0.06910811
-0.04013768
0.01589741
-0.06272568
-0.04681979
0.01175188
-0.05498319
-0.05083564
0.007458669
-0.04591931
-0.05131566
0.003074149
-0.03595835
-0.04685462
-0.001609595
-0.02622873
-0.03663702
-0.005558753
-0.01858135
-0.02710044
-0.006127096
-0.007860898
-0.01965959
-0.006118965
0.007568153
-0.01297148
-0.005473818
0.02311042
-0.003979627
-0.004660501
0.03908475
-0.001371572
0.05703372
0.02856626
-0.0009869064
0.003078332
0.03201668
-0.00196457
0.002523028
0.03961099
-0.002601444
-0.002835889
0.05084133
0.0004222014
-0.009075704
0.06105566
0.006883585
-0.01298928
0.06816014
0.011602
-0.01892586
0.07228541
0.01408444
-0.0280847
0.07317609
0.01681114
-0.03846253
0.07089483
0.02001405
-0.04859498
0.06577016
0.02338781
-0.05753098
0.05827862
0.02657387
-0.06474727
0.04892702
0.02928322
-0.07008806
0.03818073
0.03132953
-0.07363828
0.0264491
0.03260468
-0.0755709
0.01410822
0.03302539