/*--------------------------------*- C++ -*----------------------------------*\
| =========                 |                                                 |
| \\      /  F ield         | OpenFOAM: The Open Source CFD Toolbox           |
|  \\    /   O peration     | Version:  2506                                  |
|   \\  /    A nd           | Website:  www.openfoam.com                      |
|    \\/     M anipulation  |                                                 |
\*---------------------------------------------------------------------------*/
FoamFile
{
    version     2.0;
    format      ascii;
    arch        "LSB;label=32;scalar=64";
    class       volScalarField;
    location    "50/airRegion";
    object      epsilon;
}
// * * * * * * * * * * * * * * * * * * * * * * * * * * * * * * * * * * * * * //

dimensions      [0 2 -3 0 0 0 0];

internalField   nonuniform List<scalar> 
85779
(
0.008369095
0.007804797
0.007644047
0.007453296
0.006786728
0.003269249
0.001893284
0.001243645
0.0008965674
0.0006987399
0.0005836312
0.0005184763
0.0004849832
0.0004716105
0.0004706247
0.0004779915
0.0004943859
0.0005270222
0.0005963361
0.0007382557
0.001020796
0.001585136
0.002784284
0.005701184
0.006915152
0.007497406
0.007662255
0.007870479
0.008992352
0.02349338
0.007978817
0.007021546
0.00659124
0.005945183
0.003785652
0.002376106
0.001582754
0.001124496
0.000848908
0.0006796581
0.0005763514
0.0005160241
0.0004843311
0.0004714254
0.0004702902
0.0004769851
0.0004913424
0.0005185268
0.0005740718
0.000683063
0.0008870135
0.001253064
0.001886592
0.002906635
0.004000592
0.006075152
0.006546071
0.006896472
0.008054107
0.01935636
0.007995941
0.00692836
0.00632525
0.005142775
0.00297549
0.001954313
0.001381315
0.001030508
0.0008055041
0.0006590079
0.000565163
0.0005081004
0.0004768654
0.0004632519
0.0004610434
0.0004664229
0.0004783195
0.000499295
0.0005391971
0.0006131466
0.0007440101
0.0009649083
0.001325161
0.001913891
0.002975875
0.005546349
0.006234222
0.006690762
0.007903939
0.01990403
0.008045453
0.006948587
0.006261293
0.004864145
0.002702573
0.001778806
0.001282097
0.0009772331
0.0007770834
0.0006428552
0.000554295
0.0004988128
0.0004672817
0.0004525383
0.0004489665
0.0004528253
0.0004622147
0.0004774795
0.0005040401
0.0005507915
0.0006318144
0.0007700968
0.001009107
0.001454959
0.002441331
0.005136528
0.006109359
0.006667327
0.007915461
0.02033453
0.008076603
0.006963982
0.00620317
0.004524271
0.00250595
0.001678609
0.001228433
0.0009468244
0.0007586488
0.0006303274
0.0005442083
0.0004891418
0.000456869
0.0004408222
0.0004358074
0.0004381439
0.0004453468
0.0004561797
0.0004730599
0.0005014641
0.0005515557
0.0006429077
0.0008164834
0.001173573
0.002014654
0.00452769
0.006000581
0.006667562
0.007939861
0.02057759
0.008090475
0.006965433
0.006126218
0.003599286
0.002310296
0.00161306
0.00119622
0.0009273246
0.0007452383
0.0006198752
0.0005348663
0.0004796981
0.000446529
0.0004291544
0.0004227049
0.0004235864
0.0004290129
0.0004367426
0.0004472413
0.0004641085
0.000495428
0.0005587716
0.0006924243
0.000977823
0.001593928
0.002966591
0.00585307
0.006653968
0.00795098
0.02068589
0.008094359
0.00695909
0.006092272
0.003499328
0.002254521
0.001580198
0.001175207
0.0009128802
0.0007344092
0.000610862
0.0005264701
0.000471041
0.0004369669
0.0004182962
0.0004104265
0.0004098783
0.0004138026
0.0004194215
0.0004259633
0.0004358892
0.0004557387
0.0005013403
0.000608294
0.0008538461
0.001409436
0.002686274
0.005755675
0.00662318
0.007949171
0.02070968
0.008093747
0.006946648
0.006055769
0.003450402
0.002215946
0.001554098
0.001158058
0.0009010814
0.0007255076
0.0006033586
0.0005193856
0.0004636421
0.0004286842
0.0004087456
0.0003994306
0.0003973619
0.0003998043
0.0004038624
0.0004080557
0.0004140193
0.0004267869
0.0004597639
0.0005437012
0.000750385
0.001249933
0.002472852
0.005574783
0.006561471
0.007937263
0.02068584
0.008091394
0.006929534
0.006007009
0.003395595
0.002176988
0.001530137
0.0011436
0.0008917397
0.0007186917
0.0005976533
0.0005139353
0.0004578219
0.0004219939
0.0004008084
0.0003899877
0.0003861763
0.0003868898
0.0003895555
0.0003924231
0.0003963445
0.0004049177
0.000428222
0.0004907138
0.0006514576
0.001058979
0.002127912
0.005131093
0.00644349
0.007915538
0.02063069
0.008088426
0.00690624
0.005927748
0.003326047
0.002136752
0.001508969
0.001132356
0.0008851634
0.0007141694
0.0005939071
0.0005102501
0.0004536941
0.000417008
0.0003946052
0.0003822178
0.0003763667
0.0003749605
0.0003762292
0.0003784794
0.0003816937
0.0003878551
0.0004041204
0.0004487844
0.0005652575
0.0008542541
0.001543021
0.003118741
0.006212975
0.00787737
0.02053983
0.008084126
0.006871229
0.005757778
0.003234709
0.002097936
0.001492403
0.001124919
0.0008814312
0.0007118645
0.0005920059
0.0005082093
0.0004511413
0.0004136173
0.0003900396
0.000376061
0.0003679637
0.0003642148
0.0003642125
0.0003663745
0.0003696384
0.0003744529
0.000385609
0.0004167066
0.0005015515
0.00072294
0.001280463
0.002657592
0.006042633
0.007821398
0.02039507
0.008084317
0.006874575
0.005819331
0.003238392
0.002089354
0.001486241
0.001121936
0.0008802244
0.0007113483
0.0005915555
0.000507466
0.0004498602
0.0004115648
0.0003869191
0.0003714626
0.0003613079
0.0003555482
0.0003546516
0.0003570052
0.0003604689
0.00036435
0.0003714127
0.0003909778
0.0004475941
0.0006062203
0.001044556
0.002262899
0.005653925
0.007715847
0.02015634
0.008083897
0.00687346
0.005824406
0.00323622
0.002085762
0.001484273
0.001121478
0.0008805673
0.0007119165
0.0005919868
0.0005075538
0.0004494847
0.0004106265
0.0003852789
0.0003689065
0.000357544
0.0003505989
0.0003490893
0.000351377
0.0003546851
0.0003576068
0.0003613106
0.000371367
0.0004029726
0.0004964087
0.0007627027
0.001519927
0.003804818
0.007494894
0.01976171
0.008083619
0.006872176
0.005822459
0.003234483
0.002084829
0.00148428
0.001122118
0.0008814841
0.0007128305
0.0005927168
0.0005080143
0.0004496697
0.0004105905
0.000385119
0.0003687319
0.0003574071
0.0003502935
0.0003483006
0.0003499603
0.0003524928
0.0003542298
0.0003552889
0.0003586117
0.0003729264
0.000422232
0.0005770975
0.001058177
0.002566247
0.007162403
0.01912499
0.008083553
0.006871712
0.005821553
0.003234105
0.002084915
0.001484712
0.001122746
0.0008821779
0.0007134891
0.0005932863
0.0005085001
0.0004501426
0.0004111959
0.0003860913
0.000370394
0.0003601365
0.0003538102
0.0003516137
0.0003522963
0.0003535894
0.0003539902
0.0003531461
0.0003525475
0.0003571151
0.0003802723
0.0004608644
0.0007277014
0.001695834
0.005888839
0.01812161
0.00808361
0.00687181
0.005821663
0.003234172
0.002084958
0.001484741
0.001122773
0.0008822174
0.0007135699
0.0005934603
0.0005088466
0.0004507689
0.000412239
0.0003877258
0.0003728864
0.0003640596
0.0003591724
0.0003573099
0.0003571769
0.0003572317
0.0003564622
0.0003546663
0.0003532804
0.0003569817
0.0003785866
0.0004552989
0.0007114694
0.001653297
0.00582075
0.01808341
0.008083789
0.006872466
0.005822786
0.003234684
0.002084958
0.001484371
0.001122204
0.0008816125
0.0007130896
0.0005932642
0.0005090869
0.0004515806
0.000413731
0.000389983
0.000376047
0.0003685321
0.0003650826
0.0003638991
0.0003633619
0.0003625495
0.0003610841
0.0003594915
0.0003605392
0.0003721989
0.0004165266
0.0005588852
0.001007843
0.002453927
0.007101374
0.01903438
0.008084174
0.006873931
0.005824927
0.00323654
0.002085965
0.001484423
0.001121635
0.0008808104
0.0007123959
0.0005929648
0.0005094147
0.000452712
0.0004157777
0.0003929879
0.0003800315
0.000373617
0.000371266
0.0003707029
0.0003700923
0.0003689149
0.0003674238
0.0003673278
0.0003738991
0.0004011191
0.0004861765
0.0007308935
0.001410635
0.003216676
0.007445604
0.01969287
0.008084672
0.006875165
0.005819969
0.003238761
0.002089577
0.001486413
0.001122143
0.0008805817
0.0007120639
0.0005929852
0.0005101133
0.0004543161
0.0004184194
0.0003966958
0.0003847449
0.0003792497
0.0003776875
0.0003775876
0.0003771037
0.0003760392
0.0003752821
0.0003781096
0.000393381
0.0004438841
0.0005902677
0.001001722
0.002173031
0.005541112
0.007687811
0.02009675
0.008084473
0.006871749
0.005758239
0.003234951
0.002098046
0.001492488
0.001125092
0.0008818398
0.0007127622
0.0005938158
0.0005115096
0.0004565632
0.0004216834
0.0004010169
0.0003900362
0.0003853455
0.0003844098
0.0003847051
0.0003845296
0.000384015
0.0003847899
0.000392028
0.0004189028
0.0004978363
0.0007092093
0.001250659
0.002610583
0.006004817
0.007805798
0.02035556
0.008088557
0.00690637
0.005927733
0.003325851
0.002136505
0.00150878
0.001132348
0.0008854983
0.0007151212
0.000595924
0.0005139296
0.0004596487
0.0004256543
0.0004059587
0.0003958963
0.000391984
0.0003916469
0.0003924091
0.0003928084
0.0003933186
0.000396483
0.000409665
0.0004508357
0.0005625587
0.0008445141
0.001523998
0.003092286
0.006194303
0.007868165
0.02051801
0.008091172
0.006929084
0.006006193
0.003394673
0.00217616
0.001529501
0.001143267
0.0008918657
0.0007195389
0.0005996472
0.0005176332
0.0004637648
0.0004304756
0.0004116469
0.0004024772
0.0003994021
0.0003997823
0.000401242
0.0004026268
0.0004048323
0.0004114862
0.0004326826
0.0004925705
0.0006496207
0.001051686
0.002113287
0.005109378
0.006432423
0.007909873
0.02062139
0.008093106
0.006945552
0.00605409
0.003448648
0.002214424
0.001552916
0.001157314
0.000900903
0.0007261138
0.0006051086
0.0005227461
0.0004690438
0.0004362985
0.0004182671
0.0004100197
0.0004079219
0.0004092733
0.0004118325
0.0004148587
0.0004198128
0.0004315852
0.0004633113
0.0005454681
0.0007494046
0.00124485
0.002462544
0.005560684
0.006554741
0.007933517
0.02068206
0.008093241
0.006957307
0.006089743
0.003496719
0.002252289
0.001578468
0.001174052
0.0009123753
0.0007347004
0.0006122096
0.0005292201
0.0004754989
0.0004432045
0.0004259697
0.000418739
0.0004178278
0.0004205235
0.0004247937
0.0004305198
0.0004399513
0.0004594137
0.0005043857
0.0006101916
0.0008535881
0.001405176
0.002675475
0.005746394
0.006618288
0.007945981
0.02070435
0.0080888
0.006962907
0.006122893
0.00359586
0.002307446
0.001610916
0.001194781
0.000926575
0.0007452272
0.0006207516
0.0005368521
0.000482985
0.0004511268
0.0004347603
0.0004286943
0.000429222
0.0004337364
0.0004405952
0.0004506869
0.0004674199
0.0004986594
0.000561718
0.0006943337
0.0009761363
0.001578306
0.002900232
0.005840154
0.00664902
0.007947588
0.02067638
0.008074321
0.006960684
0.006199091
0.004519884
0.002502573
0.00167637
0.001227056
0.0009460896
0.0007584783
0.000630775
0.0005454036
0.0004911998
0.0004597836
0.0004443904
0.0004396507
0.0004418673
0.0004487388
0.0004593604
0.0004762939
0.0005048526
0.0005550081
0.0006460047
0.0008173699
0.001160914
0.001905014
0.003621512
0.005945433
0.006660154
0.00793599
0.02056534
0.008042575
0.006944512
0.006256459
0.004859054
0.002699127
0.001777298
0.001281615
0.0009771286
0.0007771239
0.0006430682
0.0005548041
0.0004997279
0.0004686338
0.0004542621
0.0004509541
0.0004550361
0.0004647748
0.0004805482
0.000507659
0.000554861
0.0006360821
0.0007741257
0.001012062
0.001454508
0.002427949
0.005080949
0.00609832
0.006662219
0.007911473
0.02032191
0.007992737
0.006923739
0.006319579
0.00513651
0.002972904
0.001955261
0.001383349
0.001032175
0.0008064305
0.0006593574
0.0005652153
0.0005080742
0.0004768915
0.0004634238
0.0004615119
0.0004674716
0.0004803736
0.0005025443
0.0005434988
0.0006182338
0.0007494584
0.0009701115
0.001329381
0.001916275
0.002973846
0.005538252
0.00622908
0.006686255
0.00789985
0.01989158
0.007976035
0.007017267
0.006585385
0.005938602
0.003787454
0.00238249
0.001589434
0.00112928
0.0008514836
0.0006805739
0.0005762423
0.0005153415
0.000483362
0.000470422
0.0004696193
0.0004771913
0.0004930896
0.0005220371
0.0005790691
0.0006891491
0.0008935587
0.001259146
0.001891347
0.002910111
0.004000534
0.006071638
0.006542474
0.006892711
0.008050353
0.01934554
0.008367612
0.007802627
0.007641521
0.007452626
0.006799263
0.003283475
0.001904985
0.001251512
0.000900789
0.0007003484
0.0005836291
0.0005175451
0.0004835515
0.0004700451
0.0004694161
0.0004778175
0.0004960163
0.000530703
0.0006017349
0.0007448756
0.00102773
0.001590895
0.00278751
0.005702536
0.006914843
0.007495938
0.007660364
0.007868395
0.008990427
0.0234924
0.007978978
0.007042381
0.006689841
0.006344093
0.005427909
0.002827528
0.001723158
0.001170003
0.000862339
0.0006821025
0.0005752991
0.000514151
0.0004825345
0.0004698918
0.0004688741
0.0004753914
0.0004895186
0.000517556
0.0005777784
0.0007034333
0.0009605826
0.001492351
0.002660111
0.005522628
0.006213874
0.006531467
0.006717412
0.006992493
0.008099188
0.01968531
0.007292868
0.005586958
0.004730683
0.004010591
0.003066224
0.002101914
0.001466686
0.001070368
0.0008219549
0.0006656658
0.0005688479
0.000511802
0.0004816938
0.0004694085
0.0004682325
0.0004741811
0.0004866176
0.0005099656
0.0005579275
0.0006532777
0.0008352696
0.00116952
0.001755104
0.002661802
0.003376994
0.004044846
0.004441994
0.00481452
0.00553939
0.008482174
0.00723359
0.005292693
0.004201831
0.003295983
0.002416562
0.001754361
0.001298287
0.0009910961
0.0007847811
0.0006473465
0.0005582672
0.0005037684
0.0004738438
0.0004607677
0.0004585419
0.0004633246
0.0004737379
0.0004918439
0.0005260966
0.0005897668
0.0007031735
0.0008947421
0.001197862
0.001636713
0.002205696
0.002954926
0.003495274
0.003969571
0.004665133
0.00704073
0.007264447
0.005265345
0.004078707
0.00307932
0.002210115
0.001615412
0.001217023
0.0009462769
0.0007600618
0.0006325695
0.0005476993
0.0004943306
0.0004639545
0.0004497304
0.0004462107
0.0004496571
0.0004580156
0.0004713376
0.0004940012
0.0005333189
0.0006004457
0.0007116984
0.0008908358
0.00117593
0.001643737
0.002388399
0.003081948
0.003702778
0.004535167
0.00730446
0.007288838
0.005272487
0.004038697
0.002965146
0.002114274
0.001550973
0.001176396
0.0009209253
0.000743569
0.0006206496
0.0005376483
0.0004844781
0.0004533101
0.0004378159
0.0004329502
0.0004350598
0.0004416178
0.0004512389
0.0004655471
0.0004886002
0.0005274652
0.0005945122
0.0007120571
0.0009233315
0.001312477
0.00200907
0.002856235
0.003620307
0.004567924
0.007632324
0.007298685
0.005272139
0.004010847
0.002868403
0.002055437
0.001514136
0.00115196
0.0009039362
0.0007309467
0.0006103296
0.0005281956
0.0004748618
0.0004428184
0.0004260634
0.000419871
0.0004206848
0.0004257379
0.0004327417
0.0004415673
0.0004545562
0.0004767567
0.0005186821
0.0006013723
0.0007671857
0.001091966
0.001698489
0.002675019
0.003561404
0.004583257
0.00777648
0.007299355
0.00526283
0.003986833
0.002830121
0.002022359
0.001489309
0.001133915
0.0008905057
0.0007203414
0.0006012486
0.0005196602
0.0004660872
0.0004332025
0.0004152436
0.0004077465
0.0004072491
0.0004109345
0.0004160721
0.0004214966
0.0004286062
0.0004411446
0.0004680523
0.0005289649
0.0006630546
0.0009469971
0.001515133
0.002500598
0.003475343
0.004553125
0.007771544
0.007295545
0.005247441
0.003957785
0.002796452
0.001993719
0.001468197
0.001118862
0.0008793865
0.0007115346
0.0005936607
0.0005124847
0.0004586585
0.0004249848
0.0004058834
0.0003970774
0.0003951275
0.000397305
0.0004008951
0.0004042701
0.0004082021
0.0004153043
0.0004330026
0.0004775792
0.0005837671
0.0008248375
0.00134204
0.002303677
0.003342444
0.004482545
0.007675564
0.007290186
0.005229284
0.003923283
0.002760959
0.001966639
0.001449925
0.001106676
0.0008707631
0.0007048505
0.0005879303
0.0005070231
0.0004529096
0.0004184941
0.0003983248
0.0003882006
0.0003845074
0.000384726
0.0003867176
0.0003888965
0.0003914091
0.0003957969
0.0004075316
0.0004392064
0.0005187943
0.0007081086
0.001138718
0.002018286
0.003140836
0.004372154
0.007514455
0.007284857
0.005210256
0.003882069
0.002724147
0.001942364
0.001435382
0.00109786
0.0008649476
0.0007005133
0.0005842257
0.0005034012
0.0004489415
0.0004138266
0.0003926804
0.0003812503
0.0003754071
0.0003730314
0.0003732652
0.0003748846
0.0003771534
0.0003804996
0.0003884707
0.0004104693
0.0004677161
0.0006069471
0.000928005
0.001613397
0.002855547
0.004210859
0.007275908
0.007280305
0.005191875
0.00383057
0.002688292
0.001923031
0.001425443
0.001092603
0.0008618876
0.0006984019
0.0005824046
0.0005014651
0.0004465867
0.0004107876
0.0003887043
0.0003759512
0.000367598
0.0003622523
0.0003609019
0.0003625516
0.0003653197
0.0003684376
0.0003739375
0.0003886158
0.0004285283
0.0005303131
0.0007779861
0.001350058
0.002512526
0.003967965
0.006912076
0.007278706
0.005187981
0.003831171
0.002680707
0.001915719
0.001421139
0.001090591
0.0008610738
0.0006980337
0.0005820341
0.0005008201
0.000445469
0.0004089903
0.0003859471
0.0003718004
0.0003610579
0.000353282
0.0003509935
0.0003530179
0.0003563968
0.000359458
0.0003630349
0.0003716051
0.000396326
0.0004633772
0.0006368179
0.00107284
0.002061873
0.003576057
0.006349119
0.007277859
0.00518603
0.0038292
0.00267728
0.00191303
0.001420001
0.001090595
0.00086163
0.0006986943
0.0005825153
0.0005009618
0.0004451796
0.000408184
0.0003844834
0.0003694504
0.0003573819
0.0003483222
0.000345484
0.0003475576
0.0003510071
0.0003536971
0.0003555631
0.0003591511
0.000371253
0.0004076044
0.0005061726
0.0007646737
0.001425406
0.002936888
0.005510021
0.007277539
0.005185287
0.003828056
0.002676222
0.001912628
0.001420342
0.001091422
0.000862641
0.0006996454
0.0005832507
0.0005014146
0.0004453611
0.0004081741
0.000384424
0.0003695208
0.0003577173
0.0003486385
0.0003453025
0.000346672
0.0003493545
0.0003511474
0.0003514069
0.000351308
0.0003545822
0.0003699263
0.0004180375
0.0005545249
0.0009451563
0.002052269
0.004297539
0.007277495
0.005185184
0.003827869
0.002676199
0.001912895
0.001420874
0.001092108
0.0008633577
0.0007002963
0.0005837832
0.0005018332
0.000445738
0.0004086699
0.0003853173
0.0003712323
0.0003609628
0.0003530817
0.0003495449
0.0003497371
0.0003510364
0.000351528
0.0003503456
0.0003479119
0.0003462078
0.0003498002
0.0003684779
0.0004255232
0.0005910405
0.001122671
0.002834734
0.007277554
0.005185285
0.003827983
0.002676295
0.00191296
0.001420911
0.001092126
0.000863373
0.0007003362
0.0005838923
0.0005020755
0.0004461956
0.0004094388
0.0003864969
0.000373052
0.0003645947
0.0003588786
0.0003559853
0.0003552728
0.0003551521
0.0003543233
0.0003520999
0.0003488845
0.000346514
0.0003492761
0.0003663662
0.0004195805
0.0005751397
0.001083241
0.002757381
0.007277712
0.005185582
0.00382839
0.002676502
0.00191282
0.001420454
0.001091485
0.0008627033
0.0006997945
0.0005836267
0.000502215
0.0004468348
0.0004106169
0.000388183
0.0003753148
0.0003682956
0.0003646077
0.0003628615
0.0003618421
0.0003607268
0.0003589219
0.0003563012
0.0003539887
0.0003552915
0.0003680278
0.0004108763
0.0005341184
0.0008910532
0.001932305
0.004155302
0.007278131
0.005186491
0.003829718
0.002677712
0.001913328
0.001420185
0.001090718
0.0008617811
0.0006990253
0.0005832706
0.0005024762
0.0004478515
0.0004124423
0.0003907781
0.0003786607
0.0003727341
0.0003704249
0.0003696194
0.0003686763
0.0003670974
0.0003648691
0.0003626702
0.000362984
0.0003719574
0.0004039566
0.0004939371
0.0007325728
0.001348726
0.00283799
0.005379822
0.007279043
0.00518854
0.003831782
0.002681204
0.001916057
0.001421354
0.001090764
0.0008613324
0.0006985984
0.0005832512
0.0005031478
0.0004494066
0.0004149729
0.0003942632
0.0003830119
0.0003779438
0.0003764983
0.0003762996
0.0003755724
0.0003739809
0.000371941
0.000371098
0.0003758497
0.0003964803
0.0004571043
0.0006172413
0.00102557
0.001976979
0.00349507
0.006232368
0.00728062
0.005192382
0.003831084
0.002688686
0.001923271
0.001425582
0.001092748
0.000862208
0.0006991754
0.0005840599
0.000504551
0.000451653
0.0004181996
0.0003984775
0.0003881011
0.0003837559
0.000382914
0.000383139
0.0003827173
0.0003814889
0.0003802467
0.0003817626
0.0003927901
0.0004286353
0.0005242947
0.0007609642
0.001314291
0.002451301
0.00391612
0.00683102
0.007284999
0.005210473
0.003882242
0.0027242
0.001942296
0.001435271
0.001097841
0.0008652174
0.0007013839
0.0005861691
0.0005070072
0.0004547682
0.0004221698
0.000403364
0.0003938259
0.0003901654
0.0003898666
0.0003905243
0.0003905902
0.0003901053
0.0003902956
0.0003952361
0.0004143163
0.0004682786
0.0006028942
0.0009166923
0.001591436
0.002819726
0.004182738
0.007233299
0.007290022
0.005228964
0.003922854
0.002760423
0.001966054
0.001449397
0.001106354
0.0008708504
0.0007056606
0.0005899278
0.0005107775
0.0004589354
0.0004270068
0.0004090134
0.000400291
0.0003973703
0.0003977053
0.0003989776
0.000399869
0.000400649
0.0004031239
0.0004129099
0.000442586
0.0005198447
0.0007059985
0.00113211
0.002006163
0.003124142
0.004359431
0.007500267
0.007294977
0.00524642
0.003956587
0.002795165
0.001992481
0.001467145
0.001118146
0.0008791908
0.0007121376
0.0005954701
0.0005159926
0.0004642876
0.0004328566
0.0004156002
0.0004077192
0.000405672
0.0004068643
0.0004090999
0.0004113724
0.0004142938
0.0004204621
0.0004371231
0.0004805284
0.0005852392
0.0008242941
0.001338835
0.002297743
0.003334697
0.004477204
0.007674217
0.007298299
0.005260986
0.003984765
0.002828004
0.002020423
0.001487719
0.001132795
0.0008899938
0.0007206458
0.0006026827
0.0005226016
0.0004708426
0.0004398075
0.0004232794
0.0004163274
0.0004153495
0.0004177302
0.0004214601
0.0004260282
0.0004326107
0.0004447862
0.0004713189
0.0005316335
0.0006648174
0.0009472832
0.001513135
0.002495988
0.003470256
0.004548731
0.007767562
0.007297053
0.005269383
0.004007872
0.002865481
0.002052895
0.001512135
0.001150552
0.0009031717
0.0007309424
0.0006112897
0.0005303748
0.000478455
0.0004478047
0.0004320734
0.0004261906
0.0004265143
0.0004304956
0.00043647
0.0004447791
0.0004575613
0.0004796786
0.0005214733
0.0006038146
0.000768647
0.001090699
0.001691036
0.002669198
0.003555794
0.004576911
0.007764154
0.00728655
0.005268772
0.004034889
0.002961626
0.002111458
0.001548956
0.001175044
0.0009201399
0.0007433674
0.0006211477
0.0005390059
0.0004868097
0.0004565787
0.0004417577
0.0004371026
0.0004389543
0.0004449918
0.0004542026
0.0004684054
0.0004914793
0.0005303255
0.0005971684
0.0007140582
0.0009228592
0.001301149
0.001957627
0.002844894
0.003613102
0.004559516
0.007614229
0.007261481
0.005260786
0.004074425
0.003075793
0.002208029
0.001614441
0.001216582
0.0009460391
0.000759983
0.000632763
0.0005483126
0.0004954618
0.0004655981
0.0004517632
0.0004484491
0.0004519883
0.0004605034
0.0004741169
0.0004971196
0.0005366552
0.0006037345
0.0007145942
0.0008929613
0.001176684
0.001641266
0.002379897
0.003074862
0.003695082
0.004525575
0.007284695
0.007230127
0.00528778
0.004197935
0.003293821
0.002418608
0.001757138
0.001300546
0.0009924888
0.0007854259
0.0006475594
0.0005583411
0.0005038878
0.0004740896
0.0004611742
0.000459192
0.0004644349
0.0004756663
0.0004947325
0.0005297564
0.000593838
0.0007071451
0.0008980239
0.001199921
0.00163708
0.002203887
0.002950473
0.003488686
0.003961667
0.004655275
0.007021697
0.007289408
0.005582593
0.004728618
0.004015195
0.003090816
0.002116405
0.001474745
0.001074808
0.0008240343
0.0006662896
0.0005686616
0.000511191
0.0004808744
0.0004685684
0.0004676758
0.0004743907
0.0004881873
0.0005130413
0.0005621297
0.0006580418
0.0008398329
0.001172994
0.001756825
0.002661853
0.003374681
0.004040471
0.00443591
0.004807533
0.005531263
0.008468819
0.007976241
0.007039218
0.00668933
0.006360472
0.005548427
0.002873406
0.001740535
0.001178
0.0008659597
0.0006833011
0.0005751428
0.0005132364
0.0004812033
0.0004684399
0.0004677319
0.0004751786
0.0004909334
0.0005207432
0.0005822582
0.0007085
0.0009652228
0.001495275
0.002660431
0.005521955
0.006212045
0.006528603
0.006713765
0.006988632
0.008095599
0.01968282
0.007982621
0.006952588
0.006517773
0.006069472
0.004751764
0.002527422
0.001583674
0.001101491
0.0008273282
0.0006629632
0.0005635693
0.000505702
0.0004752629
0.0004626549
0.0004609612
0.0004660617
0.0004774354
0.0005000607
0.0005489323
0.0006523519
0.0008684827
0.001329288
0.002386239
0.005149019
0.006019677
0.006346486
0.006562914
0.006870554
0.007978468
0.02031581
0.007230805
0.005319228
0.004306526
0.003555166
0.002731852
0.001922074
0.001372793
0.001020306
0.000794158
0.0006490905
0.000557838
0.0005033842
0.0004742215
0.0004619142
0.0004600897
0.0004647484
0.0004748202
0.0004936874
0.0005324252
0.0006102548
0.00076144
0.001046076
0.001560248
0.002384184
0.00304696
0.003522234
0.003874896
0.004239789
0.004918025
0.007679708
0.007146853
0.004968608
0.003714083
0.002858692
0.002174619
0.00163175
0.001234661
0.0009557724
0.000763347
0.0006329757
0.0005475588
0.0004948512
0.0004655655
0.0004523711
0.0004495125
0.0004531618
0.0004617261
0.0004766044
0.0005043542
0.0005559337
0.0006484731
0.000806242
0.00105607
0.001405733
0.001799927
0.002197144
0.002539947
0.002860745
0.003228128
0.004070096
0.007170492
0.004933602
0.003593004
0.002681835
0.002011554
0.001521773
0.001169879
0.0009192976
0.0007422529
0.000619357
0.0005369949
0.0004849481
0.0004550637
0.0004407171
0.0004366425
0.0004391521
0.0004461755
0.0004574274
0.0004759357
0.0005073549
0.0005600955
0.0006454529
0.0007762509
0.0009638015
0.001217537
0.001532531
0.001862017
0.002204041
0.002550097
0.0031708
0.007192506
0.004944801
0.003571902
0.00262983
0.001955555
0.001477213
0.001138646
0.0008980973
0.0007272901
0.0006077227
0.0005267091
0.0004747
0.0004440266
0.0004284853
0.0004231847
0.0004245528
0.0004301818
0.0004385958
0.0004504379
0.000468416
0.0004969027
0.0005426133
0.0006153072
0.0007292688
0.0009079994
0.001167553
0.001497776
0.001904465
0.002331259
0.00302911
0.007201213
0.004948763
0.003560808
0.002602534
0.001926217
0.001451978
0.001118762
0.000882679
0.000714955
0.0005971967
0.0005169273
0.0004647913
0.0004333424
0.0004166658
0.0004101756
0.0004104034
0.0004147663
0.0004210822
0.0004285229
0.0004382686
0.0004527757
0.0004768526
0.0005189655
0.0005944675
0.0007272907
0.0009472839
0.001278829
0.00173372
0.002235819
0.002995184
0.007201256
0.004943023
0.003545964
0.002580612
0.001903424
0.001432065
0.001102534
0.0008695718
0.0007040989
0.0005877507
0.0005081042
0.0004558699
0.0004237391
0.000406026
0.0003983837
0.0003973915
0.0004004209
0.0004050503
0.0004096974
0.0004147534
0.000421619
0.0004339742
0.0004592556
0.0005114023
0.0006133587
0.0008009996
0.001114766
0.001583633
0.002138444
0.002910856
0.007197359
0.004932239
0.003527575
0.002558472
0.001882423
0.001414592
0.001088634
0.0008584575
0.0006949489
0.0005798421
0.0005007637
0.0004484689
0.0004157606
0.0003971388
0.0003883903
0.0003859481
0.0003872404
0.0003901639
0.0003930254
0.0003956903
0.0003987744
0.000404974
0.0004205145
0.0004567186
0.0005343291
0.0006891156
0.0009683694
0.001412023
0.002012499
0.002776498
0.007192423
0.00492036
0.003508461
0.002537351
0.001863958
0.00140015
0.001077616
0.0008498862
0.0006880198
0.0005739196
0.0004952868
0.0004429311
0.0004097604
0.000390429
0.0003806985
0.0003763755
0.0003750997
0.0003759235
0.0003776345
0.0003794286
0.0003810993
0.0003844586
0.000394004
0.0004186724
0.0004754108
0.0005953787
0.0008268007
0.001219925
0.001852592
0.00260247
0.007188002
0.004909765
0.003490744
0.002519131
0.001849403
0.001389603
0.001070029
0.0008442333
0.0006835729
0.0005701551
0.0004917808
0.0004393296
0.0004058132
0.0003860323
0.000375567
0.0003687017
0.0003636927
0.0003620156
0.0003631454
0.0003651663
0.0003669261
0.0003691771
0.0003750819
0.0003914828
0.0004314216
0.0005194178
0.0006988404
0.001032974
0.001646523
0.002371719
0.00718474
0.004901727
0.003475868
0.002505325
0.001839596
0.001383204
0.001065858
0.0008413844
0.0006814517
0.0005683631
0.0004900303
0.000437402
0.0004035596
0.0003834139
0.0003723236
0.000362173
0.0003526681
0.00034879
0.0003500988
0.000353085
0.0003556143
0.0003575398
0.0003610101
0.0003711284
0.0003977012
0.0004593764
0.0005916372
0.0008543757
0.001368701
0.002051933
0.007182913
0.004897871
0.003470708
0.002499482
0.001835058
0.001380482
0.001064471
0.000840743
0.0006811171
0.0005680479
0.0004895517
0.0004366241
0.0004023236
0.0003814818
0.0003692237
0.0003557666
0.0003428575
0.0003380062
0.0003400246
0.0003440545
0.0003472686
0.0003489719
0.0003504592
0.000355232
0.0003699919
0.0004071962
0.0004908195
0.0006642178
0.001012718
0.001622104
0.007181994
0.004896148
0.003468511
0.002497298
0.001833703
0.001380137
0.001064831
0.0008414224
0.0006818088
0.0005685543
0.000489769
0.0004364995
0.0004017889
0.0003803823
0.0003672816
0.0003521393
0.0003376859
0.0003323781
0.0003345867
0.0003388765
0.0003421453
0.0003433422
0.0003430615
0.0003434363
0.0003485096
0.0003652643
0.0004061262
0.0004939166
0.0006711933
0.001107962
0.007181665
0.004895652
0.003467975
0.002496998
0.001833908
0.001380843
0.00106584
0.0008424991
0.0006827576
0.0005692523
0.0004901737
0.0004366467
0.0004017983
0.0003804784
0.000367788
0.0003533596
0.0003390905
0.00033312
0.0003343761
0.0003377716
0.0003402517
0.0003405316
0.00033867
0.0003357852
0.0003340901
0.0003371611
0.000350661
0.0003840719
0.0004541984
0.000620187
0.007181621
0.004895666
0.003468074
0.002497264
0.001834397
0.001381516
0.001066596
0.0008432261
0.0006833621
0.0005696799
0.0004904221
0.0004367825
0.0004020032
0.0003811156
0.0003694967
0.0003576931
0.0003453802
0.0003390002
0.0003385626
0.0003402165
0.0003412554
0.0003403179
0.0003371443
0.000332233
0.0003267225
0.0003222684
0.0003208108
0.0003241133
0.0003328861
0.0003614867
0.007181679
0.00489577
0.003468193
0.002497374
0.001834478
0.00138156
0.001066602
0.0008431992
0.0006833167
0.0005696384
0.0004904126
0.0004368318
0.0004021114
0.0003811868
0.0003695965
0.0003606304
0.000352154
0.0003469046
0.0003452548
0.0003451037
0.0003445353
0.0003423784
0.0003383524
0.0003328469
0.0003268582
0.0003218753
0.0003196276
0.0003216209
0.0003283851
0.0003544593
0.007181835
0.00489596
0.003468322
0.002497319
0.00183415
0.001380979
0.001065869
0.000842445
0.0006826734
0.0005692213
0.0004903016
0.0004370438
0.0004025423
0.0003815385
0.0003697523
0.0003626471
0.0003576349
0.0003544607
0.0003526279
0.0003512598
0.0003493848
0.0003463053
0.0003420621
0.000337481
0.0003343668
0.0003357733
0.0003465746
0.000374878
0.0004352275
0.0005836014
0.007182263
0.004896627
0.003469052
0.002497799
0.001834085
0.001380364
0.00106491
0.0008414074
0.0006818117
0.0005687501
0.0004903767
0.0004377392
0.0004038104
0.0003831879
0.000371713
0.0003658227
0.0003629
0.0003613279
0.0003598518
0.0003579237
0.0003552727
0.0003517709
0.0003480589