/*--------------------------------*- C++ -*----------------------------------*\
| =========                 |                                                 |
| \\      /  F ield         | OpenFOAM: The Open Source CFD Toolbox           |
|  \\    /   O peration     | Version:  2506                                  |
|   \\  /    A nd           | Website:  www.openfoam.com                      |
|    \\/     M anipulation  |                                                 |
\*---------------------------------------------------------------------------*/
FoamFile
{
    version     2.0;
    format      ascii;
    arch        "LSB;label=32;scalar=64";
    class       volScalarField;
    location    "50/airRegion";
    object      k;
}
// * * * * * * * * * * * * * * * * * * * * * * * * * * * * * * * * * * * * * //

dimensions      [0 2 -2 0 0 0 0];

internalField   nonuniform List<scalar> 
85779
(
0.09256836
0.08948617
0.08822882
0.08635881
0.08033936
0.05138535
0.03796578
0.03088797
0.02687396
0.02460056
0.02340737
0.0228984
0.0227999
0.0229099
0.02308054
0.02321982
0.02327697
0.02335869
0.02377741
0.02503685
0.02799973
0.03413527
0.04634492
0.07180228
0.08182654
0.08646412
0.08760738
0.08767077
0.08603361
0.07254428
0.09038715
0.08480269
0.0814733
0.07585068
0.05795104
0.04414948
0.03538837
0.02990368
0.02649462
0.02446529
0.02337195
0.02289904
0.02280631
0.02290964
0.02307279
0.02321006
0.0232653
0.02331281
0.02359811
0.02449753
0.02660923
0.03076044
0.03792083
0.04865992
0.05916577
0.07588592
0.07943764
0.08001489
0.07802044
0.06376965
0.09036233
0.08390488
0.07917208
0.06942554
0.05057473
0.04005251
0.03337949
0.02897263
0.02607907
0.02426724
0.0232385
0.02275463
0.02261789
0.02267079
0.02279668
0.02292197
0.02298987
0.02302715
0.02318562
0.02369608
0.02492072
0.02733814
0.03148834
0.03803376
0.04860963
0.07058558
0.07610488
0.07765031
0.07674182
0.06497807
0.09059125
0.08382841
0.07835082
0.06674106
0.04759474
0.0380156
0.03218549
0.02832357
0.02573067
0.02405261
0.02305278
0.02253678
0.022338
0.02232342
0.02239745
0.02250106
0.02257908
0.02261324
0.0226694
0.02286493
0.02341567
0.02466563
0.02715461
0.03193296
0.04191179
0.06612259
0.07428168
0.07694601
0.07687074
0.06592275
0.09074611
0.0838073
0.07768179
0.06372133
0.04552456
0.03679701
0.03145671
0.02788144
0.02544619
0.02383326
0.0228315
0.02226797
0.02199585
0.02190205
0.02191152
0.02198186
0.02206433
0.0221059
0.02210261
0.02209339
0.02220639
0.02272073
0.02418628
0.02777765
0.03640323
0.05995475
0.07274921
0.07663712
0.07711497
0.06645883
0.0908103
0.08374059
0.07690753
0.05612484
0.04363774
0.03599789
0.03098794
0.02756653
0.02520819
0.02361743
0.0225929
0.02197098
0.02161657
0.02143212
0.02136266
0.02138563
0.02146582
0.0215276
0.02151076
0.02140037
0.02126735
0.02134346
0.02216228
0.02479604
0.03125937
0.04532013
0.07096984
0.07631802
0.07720188
0.06670258
0.09081812
0.08365204
0.07656854
0.05507441
0.04296488
0.03555132
0.03067396
0.02732985
0.02500699
0.02341515
0.02235557
0.02166767
0.02122249
0.02093425
0.02076799
0.02072614
0.02079565
0.02089
0.02090059
0.02077212
0.02053272
0.02037308
0.02078155
0.02280361
0.02850462
0.04177296
0.0698097
0.07589605
0.07710578
0.06676257
0.09079762
0.08352781
0.07624522
0.05454394
0.04251086
0.03522054
0.03043638
0.02714507
0.02484027
0.02323632
0.02213538
0.02137658
0.02083258
0.02042552
0.02014057
0.02001241
0.02006075
0.02019869
0.02027096
0.02018649
0.01993673
0.01966762
0.01978531
0.0212552
0.02618528
0.03892329
0.06792356
0.07516316
0.0768314
0.06671823
0.09076418
0.08336676
0.07583361
0.05399706
0.04209203
0.0349434
0.03025078
0.02700398
0.02470956
0.02308887
0.02194462
0.02111324
0.02046479
0.01992453
0.01949702
0.01925828
0.01927387
0.0194653
0.01962681
0.01962942
0.01943463
0.01913253
0.01903449
0.01992979
0.02369409
0.03474588
0.06346933
0.07380277
0.07635739
0.06660688
0.09072447
0.08315386
0.07519577
0.05335372
0.04169164
0.03471521
0.03011349
0.02690478
0.02461619
0.02297753
0.02179178
0.02089089
0.02013845
0.01945721
0.01886812
0.01849722
0.01847043
0.01872354
0.01899363
0.01911057
0.01900403
0.01871864
0.01847483
0.01884935
0.02118779
0.02823722
0.04438161
0.07121145
0.07565397
0.06642008
0.09067637
0.08286157
0.07396263
0.05259468
0.04133804
0.03454712
0.03002473
0.02684506
0.02455858
0.022903
0.02168121
0.02072011
0.01987465
0.01906029
0.01830879
0.01779878
0.0177257
0.01804138
0.01842299
0.01865789
0.0186473
0.01840233
0.01807136
0.01807635
0.01948694
0.02477398
0.03876646
0.06922328
0.07475263
0.06612536
0.09067188
0.08287024
0.07433831
0.05254889
0.04122371
0.03447287
0.0299848
0.02681945
0.02453151
0.02286183
0.02161284
0.02060739
0.01969283
0.0187763
0.01789424
0.01726676
0.0171505
0.01751203
0.01798382
0.01831197
0.01838107
0.01817561
0.0177822
0.01747952
0.01804653
0.02162954
0.03360987
0.06495568
0.07315402
0.06564267
0.09066674
0.08285864
0.07436762
0.05250775
0.04117565
0.0344463
0.02997506
0.02681626
0.02452616
0.02284739
0.02158285
0.02055402
0.01960466
0.01863696
0.01768715
0.01699334
0.0168437
0.01721732
0.01773196
0.01810836
0.01822298
0.01804074
0.01759772
0.01704098
0.01679731
0.01811913
0.0245479
0.0456609
0.06985473
0.06483273
0.09066384
0.08284786
0.07435122
0.05248617
0.04116203
0.03444394
0.02998023
0.02682433
0.02453362
0.02285249
0.02158582
0.02055715
0.01961209
0.01865337
0.01771358
0.0170205
0.01685262
0.01719709
0.01769547
0.01806493
0.01818152
0.01799764
0.0175153
0.01679442
0.01603231
0.01588329
0.01860207
0.03090182
0.06572092
0.06354708
0.09066307
0.08284411
0.07434425
0.05248167
0.04116216
0.03444852
0.02998799
0.02683445
0.0245466
0.02287113
0.02161655
0.02061164
0.01970888
0.0188168
0.01796153
0.01733381
0.01716354
0.01744192
0.01786788
0.01817749
0.01825231
0.01803823
0.01751797
0.01670266
0.01565334
0.01459504
0.01449478
0.02000546
0.05281866
0.06154392
0.09066347
0.08284485
0.0743452
0.05248269
0.04116336
0.03445029
0.02999133
0.02684134
0.02456082
0.02289946
0.02167052
0.02070998
0.01987996
0.01909688
0.01837655
0.01785732
0.01769979
0.01789238
0.01820696
0.01841863
0.0184176
0.01814829
0.01758881
0.01674362
0.01566287
0.01454752
0.01430236
0.01948036
0.05215523
0.06145635
0.09066502
0.08285006
0.074354
0.05248915
0.04116551
0.03444915
0.02999006
0.02684465
0.02457548
0.02293545
0.02174272
0.02084038
0.02009938
0.01944165
0.0188695
0.0184693
0.01833733
0.01845313
0.01864638
0.01874379
0.01864799
0.01830852
0.01771456
0.01690614
0.01604585
0.01570821
0.01797287
0.02948825
0.06510736
0.06337789
0.09066865
0.08286214
0.07437197
0.05251235
0.04118102
0.03445452
0.0299908
0.02684891
0.02459313
0.02297896
0.0218286
0.02099072
0.02034214
0.01980593
0.01936894
0.01907548
0.01897405
0.01903238
0.01911933
0.01910711
0.01891427
0.01850383
0.01789349
0.01719949
0.01679262
0.01779028
0.02324777
0.03924998
0.06923992
0.0646826
0.09067428
0.08287457
0.07434352
0.05255414
0.04122999
0.03448301
0.03000506
0.0268621
0.02461887
0.0230318
0.02192547
0.02115187
0.0205904
0.02016166
0.0198375
0.01963121
0.01955903
0.01957712
0.01958009
0.0194736
0.01919318
0.01872359
0.01813009
0.01765121
0.01799068
0.02116656
0.03253364
0.06376695
0.07278332
0.06552077
0.09067865
0.08286534
0.07396658
0.05259869
0.04134332
0.03455715
0.030047
0.02689385
0.02465925
0.02309732
0.02203288
0.02131905
0.02083517
0.02049733
0.02026428
0.02012711
0.02008049
0.02007048
0.02000979
0.01982658
0.0194741
0.01896595
0.01843085
0.01825432
0.01945251
0.02445716
0.03819953
0.06882615
0.07455333
0.06604306
0.09072532
0.08315484
0.07519592
0.0533533
0.04169288
0.03472215
0.03013435
0.02695473
0.02472142
0.02317991
0.0221526
0.02149185
0.02107517
0.02081334
0.02065409
0.02057271
0.02054765
0.02051809
0.02041021
0.02016733
0.01976145
0.01924191
0.01881353
0.01902561
0.0211934
0.02806152
0.04409108
0.0710318
0.07555116
0.06637291
0.09076269
0.08336358
0.07582769
0.05398968
0.04208677
0.0349448
0.0302672
0.02705025
0.02481064
0.02328351
0.02228739
0.02167268
0.02131403
0.02111665
0.02101902
0.02098469
0.02097887
0.02093672
0.02079542
0.02051059
0.0200745
0.0195816
0.01933107
0.02009235
0.02372289
0.03464509
0.06329655
0.07371187
0.07630804
0.06658476
0.09079334
0.08351996
0.07623274
0.0545287
0.04249811
0.03521529
0.0304466
0.02718414
0.02493017
0.02341049
0.02243936
0.0218645
0.02155694
0.0214162
0.02137247
0.02138003
0.02139279
0.02134428
0.02118319
0.02087831
0.02044616
0.02003165
0.02003217
0.02139892
0.02622803
0.03887162
0.06782388
0.07511629
0.07680809
0.06670728
0.09081069
0.08363927
0.07654965
0.0550516
0.04294533
0.03554017
0.03067815
0.02736028
0.02508147
0.02356066
0.02260811
0.02206822
0.02180743
0.02171886
0.02172462
0.02177097
0.02180227
0.02175371
0.0215897
0.02129733
0.02092362
0.02065822
0.02098166
0.02292716
0.02854381
0.0417108
0.06974884
0.07586598
0.0770882
0.06674884
0.09079929
0.0837227
0.07688289
0.05609616
0.04361438
0.03598431
0.03098888
0.02758947
0.02526616
0.02373084
0.02278909
0.02228026
0.02206423
0.02202601
0.02207882
0.02216134
0.02221057
0.02216893
0.02202527
0.02179511
0.02156377
0.02156422
0.02232092
0.0248812
0.03117391
0.04471213
0.07086144
0.07628477
0.07717958
0.06668088
0.09073135
0.08378438
0.07765243
0.06368834
0.04550191
0.0367878
0.03146063
0.02790106
0.02548964
0.02391532
0.02297264
0.02249082
0.02231891
0.02233077
0.02242882
0.02254403
0.02260895
0.0225819
0.02249004
0.02239476
0.02243594
0.02289381
0.02430324
0.02774723
0.03549078
0.05221774
0.07222799
0.07657527
0.07708534
0.0664319
0.090573
0.08380084
0.07831754
0.06670698
0.04758142
0.03802334
0.03220382
0.02834783
0.02576468
0.0241075
0.02314472
0.02268371
0.02255494
0.02261637
0.02275714
0.0228999
0.02297608
0.02297101
0.02296892
0.02310447
0.02360361
0.02481257
0.02726508
0.03199036
0.04182048
0.06560654
0.07418468
0.07690836
0.07683893
0.06589536
0.09034242
0.08387444
0.07913506
0.06938925
0.05058436
0.04009775
0.03343
0.0290135
0.02611141
0.02430172
0.02329018
0.02283958
0.02274999
0.022858
0.02303693
0.02320046
0.02328153
0.02330311
0.02342686
0.02389783
0.02508672
0.02747308
0.03159224
0.03810089
0.04861863
0.0705247
0.07606877
0.07761817
0.07670916
0.06495137
0.0903701
0.08477515
0.08143762
0.07582011
0.05801215
0.04425832
0.03548951
0.02997278
0.02653332
0.02448745
0.02339456
0.02293857
0.02287696
0.0230215
0.02322944
0.02340596
0.02348652
0.02353558
0.02380324
0.02467836
0.02676565
0.03088982
0.03801535
0.04871751
0.05918031
0.07586492
0.07941355
0.07998821
0.07799214
0.06374668
0.09255942
0.08947265
0.08821491
0.08636765
0.08046228
0.05156492
0.03811437
0.03098245
0.0269208
0.02461833
0.02341556
0.02291437
0.02283839
0.02298236
0.02319357
0.02337263
0.02346108
0.0235531
0.02396342
0.02520709
0.02815088
0.03425645
0.04641809
0.07182349
0.0818282
0.08645547
0.08759507
0.0876567
0.08602038
0.07254221
0.09040309
0.0849693
0.08224724
0.07895477
0.07073015
0.04785038
0.03650103
0.03020393
0.02652978
0.02442084
0.02331055
0.02284102
0.02275774
0.02287051
0.02303854
0.02317261
0.02321971
0.02326837
0.02359447
0.02465664
0.02729067
0.03301908
0.04492394
0.07019979
0.07670795
0.07954466
0.08068502
0.0807596
0.07872352
0.06446462
0.08601903
0.07538456
0.06876489
0.06195701
0.05233481
0.04184696
0.03433131
0.02936189
0.02619954
0.02430061
0.02327665
0.02283685
0.02275568
0.02285943
0.02301869
0.02315101
0.02319993
0.02322399
0.02343545
0.02416841
0.02598692
0.0297253
0.03636465
0.04612893
0.05357428
0.05983752
0.0625726
0.06242856
0.05734094
0.03679144
0.08522032
0.07260798
0.06398437
0.05541008
0.04610487
0.03836047
0.03260588
0.02855538
0.0258319
0.02411455
0.02313879
0.02268046
0.02255144
0.02260239
0.02272286
0.02284284
0.02290731
0.02293191
0.02304158
0.02343176
0.02442509
0.02645862
0.02995668
0.03504422
0.04126117
0.04861652
0.05274034
0.05355383
0.0493929
0.03255471
0.08519702
0.07191833
0.06235629
0.05284848
0.04361252
0.03662385
0.03156682
0.02798017
0.02551328
0.02390631
0.02294759
0.0224513
0.02225723
0.02223883
0.0223062
0.0224043
0.02248172
0.0225139
0.02254603
0.02266594
0.02304487
0.02395003
0.02573123
0.02881713
0.03387541
0.0414154
0.04725872
0.04979809
0.04753899
0.03340685
0.08525688
0.07171657
0.06164309
0.05138796
0.04230683
0.03567977
0.03094141
0.0275798
0.02524377
0.02368825
0.02272022
0.02217235
0.02190246
0.02180295
0.02180441
0.02186895
0.02195315
0.02200175
0.0219949
0.02194667
0.02193896
0.02215838
0.02294294
0.0248763
0.02890494
0.03609533
0.04382021
0.04814834
0.04739177
0.03443318
0.08527333
0.07158304
0.06119487
0.05024582
0.04149743
0.03510693
0.03053352
0.02728409
0.02501041
0.02347013
0.02247533
0.02186635
0.02151176
0.02131906
0.02123933
0.02125552
0.02133881
0.02141431
0.02140911
0.02128741
0.02107605
0.02091241
0.02111052
0.02228901
0.02542795
0.03173525
0.04114462
0.04703152
0.04729995
0.03489677
0.08524755
0.07143406
0.06086887
0.04973158
0.04102225
0.03472608
0.03024083
0.02705284
0.02480835
0.02326401
0.02223218
0.02155515
0.02110681
0.02080621
0.02062541
0.02057432
0.02064733
0.02076038
0.0207937
0.0206744
0.0203912
0.02004293
0.01991193
0.02057651
0.02308714
0.02894466
0.038741
0.04577526
0.04684246
0.03491104
0.08519679
0.07125441
0.06053463
0.04931809
0.04064701
0.03443094
0.03001516
0.02686967
0.02463947
0.02308163
0.02200736
0.02125733
0.02070593
0.02027958
0.01997212
0.01982971
0.0198815
0.02004313
0.02014755
0.02008791
0.01982262
0.0194197
0.01910075
0.01937006
0.02124818
0.02643029
0.03610832
0.04404079
0.04596714
0.03464936
0.08513681
0.07105669
0.06016545
0.04891427
0.04031847
0.03419351
0.02984265
0.02673082
0.02450752
0.02293202
0.02181363
0.02098856
0.02032665
0.01975605
0.01929206
0.01903003
0.01904987
0.01927278
0.01947728
0.01951868
0.01933132
0.01894968
0.01853336
0.01847893
0.01964907
0.02368586
0.03247585
0.04153567
0.04464799
0.03419016
0.08507819
0.0708539
0.05974765
0.04851818
0.04003904
0.03401275
0.02972084
0.02663538
0.02441442
0.0228202
0.02165965
0.02076234
0.01998875
0.01926146
0.01861396
0.01820529
0.01818673
0.01848513
0.01881233
0.01897955
0.01890214
0.01858368
0.01813308
0.0178388
0.01834711
0.0209477
0.02749028
0.03811975
0.04282743
0.03350064
0.08502819
0.07066385
0.05926885
0.04815798
0.03982665
0.03389204
0.02964709
0.02658004
0.02435817
0.02274651
0.02154953
0.02058954
0.01971496
0.01883648
0.01799898
0.01743271
0.01737677
0.01775778
0.01821275
0.01850876
0.01854365
0.01830149
0.01785134
0.01739538
0.01741327
0.01897475
0.02403594
0.03408297
0.04025111
0.03244532
0.08500895
0.0706114
0.05923156
0.04804982
0.03973194
0.0338343
0.02961473
0.02655744
0.02433263
0.02270672
0.02148251
0.02047665
0.01952712
0.01853222
0.01754124
0.01684218
0.01675313
0.0171996
0.01775597
0.01815315
0.01827802
0.01810148
0.01765983
0.01707894
0.01667232
0.0172127
0.02045429
0.02871273
0.03624914
0.03078363
0.08499946
0.07058652
0.05919997
0.04800186
0.03969413
0.0338156
0.02960911
0.02655624
0.02432846
0.02269342
0.02145386
0.02042438
0.01943809
0.01838645
0.01731828
0.01654709
0.01643123
0.01689994
0.01750364
0.01795082
0.01812525
0.01798836
0.01755088
0.01687596
0.01612457
0.01570073
0.01663098
0.02105866
0.03002312
0.02819991
0.08499584
0.07057692
0.05918484
0.04798623
0.03968603
0.03381672
0.02961621
0.02656526
0.02433637
0.02269888
0.02145757
0.02042938
0.01944983
0.01841161
0.01735968
0.01659426
0.01646074
0.01689746
0.0174818
0.01791837
0.01809354
0.01796231
0.01751767
0.01678153
0.01581948
0.01480634
0.01425378
0.01565427
0.02205016
0.02427368
0.08499514
0.07057512
0.05918195
0.04798479
0.03968807
0.0338224
0.0296245
0.02657543
0.02434902
0.0227171
0.02148854
0.02048663
0.01955611
0.01859889
0.01765327
0.01696843
0.01682581
0.01717975
0.01768001
0.01804879
0.01817719
0.01801603
0.01754722
0.01676932
0.01569633
0.0143732
0.01295181
0.01199097
0.01348862
0.0190294
0.0849956
0.07057606
0.0591832
0.04798612
0.03968943
0.0338241
0.0296275
0.02658169
0.0243624
0.02274468
0.02154285
0.02058907
0.01974105
0.01891315
0.01813344
0.01757873
0.01743887
0.01768156
0.01805173
0.01831102
0.01835625
0.01813511
0.01762466
0.01681775
0.01572167
0.01437179
0.01290243
0.0118371
0.01314241
0.01872866
0.08499715
0.07057964
0.05918846
0.0479901
0.03968998
0.03382174
0.02962511
0.02658392
0.02437607
0.02278008
0.02161588
0.02072441
0.01997524
0.01929204
0.01868772
0.01827028
0.01814904
0.01829441
0.01852442
0.01865765
0.01859984
0.0182996
0.01773683
0.01691703
0.01588527
0.01478373
0.01405635
0.0150703
0.02093656
0.02379237
0.0850015
0.07059069
0.05920549
0.04800774
0.03970022
0.03382357
0.02962357
0.02658669
0.02439284
0.0228235
0.02170332
0.02088007
0.02023125
0.01968339
0.01923153
0.01893155
0.01883713
0.01891327
0.0190251
0.01903964
0.01887675
0.01849225
0.01787897
0.01707574
0.01621124
0.01563739
0.01628347
0.02016265
0.02912356
0.02778195
0.0850114
0.07061632
0.05923794
0.04805657
0.03973908
0.03384419
0.02963363
0.02659796
0.02441799
0.02287684
0.02180227
0.0210463
0.02049005
0.02005805
0.0197283
0.01952048
0.01945306
0.01948323
0.01950506
0.01941988
0.01916172
0.01869941
0.01805024
0.01731045
0.01674899
0.01706296
0.01990657
0.02771893
0.03546735
0.03042868
0.08503042
0.07066819
0.05927421
0.04816359
0.03983288
0.03390189
0.02966817
0.02662726
0.02445815
0.02294343
0.02191209
0.02121796
0.02074259
0.02040597
0.02017156
0.02003451
0.01999112
0.01999061
0.01994582
0.01978131
0.01944264
0.01891692
0.01825661
0.01763603
0.01749492
0.01885093
0.02363146
0.03340763
0.03975459
0.03220439
0.0850792
0.07085576
0.05974965
0.04851999
0.04004158
0.03401976
0.02974091
0.02668457
0.0245205
0.02302767
0.02203444
0.02139457
0.02098808
0.0207294
0.02057024
0.02048882
0.02046623
0.02044517
0.02035184
0.02012565
0.01972284
0.01915366
0.01851442
0.01807163
0.01844333
0.02089209
0.02726723
0.03775172
0.0425704
0.0333722
0.08513567
0.07105414
0.06016178
0.04890975
0.04031487
0.03419525
0.02985864
0.02677705
0.02461073
0.02313358
0.0221721
0.02157874
0.0212308
0.02103703
0.02093944
0.02090423
0.02090029
0.02086627
0.02073874
0.02046692
0.02002004
0.01943595
0.01886579
0.01869037
0.01975437
0.0236871
0.03238332
0.04138787
0.04454698
0.03414244
0.08519282
0.07124615
0.06052387
0.0493058
0.040636
0.03442614
0.03002515
0.0269091
0.0247322
0.02326358
0.0223273
0.02177375
0.02147671
0.02133918
0.02129474
0.02130033
0.02131439
0.02127374
0.02112481
0.02082653
0.02036555
0.01980986
0.0193747
0.01955336
0.02135487
0.02646752
0.03609017
0.0439946
0.04594116
0.03463768
0.08524024
0.07141937
0.06085054
0.04971145
0.04100424
0.03471529
0.03024472
0.02708359
0.02488566
0.02341712
0.02249969
0.02198089
0.02173009
0.02164393
0.02164796
0.02169123
0.02172315
0.02168152
0.02152594
0.02122945
0.0208018
0.02034361
0.02012945
0.02073009
0.02318575
0.0289889
0.03873924
0.04575852
0.04682863
0.03489273
0.08526232
0.07156184
0.06116969
0.05021976
0.04147543
0.03509342
0.03053373
0.02730679
0.02507049
0.0235901
0.02268455
0.02219698
0.02199045
0.02195381
0.02200387
0.02208229
0.02213113
0.02209394
0.02195118
0.0216997
0.02138235
0.02113881
0.02127849
0.02240898
0.02549084
0.03170802
0.04112393
0.04700682
0.04726884
0.03485608
0.08524209
0.07168965
0.0616136
0.05136069
0.04228755
0.03567085
0.03094388
0.02759801
0.02528795
0.02377516
0.02287193
0.02241259
0.02225017
0.02226299
0.0223575
0.02246775
0.02253074
0.02250326
0.02239935
0.02225682
0.0221703
0.02232927
0.02306759
0.02494961
0.02884742
0.03561828
0.04372974
0.04810136
0.04734017
0.03437674
0.08517892
0.07188805
0.06232794
0.05282857
0.04360981
0.03663384
0.03158276
0.02800118
0.025546
0.02396389
0.02304741
0.02261184
0.02249337
0.02255565
0.0226925
0.0228297
0.02290181
0.02288868
0.0228554
0.02290755
0.02322682
0.02408384
0.02582687
0.0288777
0.03388489
0.04134623
0.04720631
0.04974082
0.04747372
0.03334564
0.08520045
0.07257853
0.0639645
0.05541123
0.04615237
0.03841689
0.03265352
0.02859028
0.02586032
0.02414933
0.02319576
0.02277569
0.02269827
0.0228077
0.02298295
0.02314075
0.02321527
0.02321909
0.02328749
0.02362981
0.02457725
0.02656933
0.03002927
0.03508019
0.04126203
0.04858294
0.05268719
0.05348985
0.0493233
0.03249591
0.08599971
0.07536004
0.0687608
0.06201722
0.05257638
0.04201307
0.03443524
0.02942249
0.02623146
0.02432075
0.02330232
0.02288397
0.02283759
0.02298507
0.02319026
0.02336127
0.02343274
0.02345392
0.0236413
0.02434055
0.02612244
0.02982162
0.03641879
0.0461461
0.05356057
0.05980177
0.06252227
0.0623716
0.05728382
0.03675229
0.09038699
0.0849506
0.08225166
0.07909665
0.07162871
0.04825601
0.03667996
0.03029159
0.02656838
0.02443516
0.02332035
0.02286285
0.02280529
0.02295406
0.02316344
0.02333661
0.02341247
0.02346727
0.02377836
0.02481444
0.02741615
0.03310336
0.04495827
0.0702
0.07669578
0.07952413
0.08065858
0.08073119
0.07869844
0.06445848
0.09032242
0.08417815
0.0807997
0.07664304
0.06525649
0.04505782
0.03510207
0.02947812
0.02613572
0.02418189
0.02313306
0.02267488
0.02257744
0.0226665
0.02281278
0.02293362
0.02297883
0.02301009
0.02324588
0.02406625
0.0262052
0.03110547
0.04191288
0.06668298
0.07472897
0.07758741
0.07887643
0.07928945
0.07804661
0.06584169
0.08526211
0.07293467
0.06503306
0.05788071
0.0491682
0.04001839
0.03331319
0.02878447
0.02585615
0.02407316
0.0230961
0.0226625
0.02256523
0.02264414
0.02278067
0.02289923
0.02294821
0.02296377
0.02310839
0.02365156
0.02507841
0.02817251
0.03396057
0.04288623
0.04982091
0.05428143
0.05650141
0.05638792
0.05194793
0.03442276
0.08414567
0.06944318
0.05943359
0.05125314
0.04368288
0.03705369
0.03187457
0.02811421
0.02553897
0.02389337
0.02294314
0.02248076
0.02233015
0.02235245
0.02244689
0.0225506
0.02261619
0.02264452
0.02272132
0.02299427
0.02372503
0.0252922
0.02807258
0.03207857
0.03640428
0.0402362
0.04240142
0.04205894
0.0371663
0.02258817
0.08401403
0.06855876
0.05766528
0.04893647
0.04156432
0.03559552
0.03100261
0.02762284
0.02525089
0.02368544
0.02273668
0.02222874
0.02200904
0.02195901
0.02199749
0.02207684
0.02215584
0.02220302
0.0222339
0.02230102
0.02252255
0.02308678
0.02420887
0.02603664
0.0285701
0.0314709
0.033623
0.03395539
0.03037618
0.01920118
0.08404376
0.06835025
0.05706828
0.04800013
0.0406163
0.03484104
0.03047241
0.02726476
0.02499304
0.02346192
0.02249497
0.02193104
0.02163291
0.02149932
0.02146907
0.02151225
0.02159742
0.02166923
0.02168534
0.02163267
0.02154509
0.02152005
0.02171753
0.02235559
0.02372294
0.02585261
0.02812782
0.02957582
0.02766138
0.01869725
0.08405411
0.06824887
0.05676677
0.0474967
0.04008887
0.03438383
0.0301112
0.0269839
0.02475859
0.02323473
0.0222372
0.02161008
0.02122514
0.02099527
0.02087986
0.02087112
0.02095328
0.0210568
0.02109108
0.02099818
0.02076246
0.02043399
0.02014022
0.02012013
0.02071479
0.02223119
0.02459032
0.02690608
0.0263303
0.01861553
0.08403042
0.06813526
0.05652711
0.04715294
0.03972351
0.03405494
0.02983596
0.02675281
0.02454925
0.02301877
0.02198348
0.02128739
0.02080602
0.02046299
0.02023959
0.0201578
0.02022617
0.02036985
0.02045384
0.02038535
0.02011735
0.01967161
0.01915103
0.01876994
0.01886618
0.01988185
0.02204906
0.02474573
0.02515264
0.01831233
0.08398779
0.06800349
0.0562926
0.04685599
0.03942649
0.03379501
0.02961825
0.0265651
0.02437206
0.02282813
0.02175116
0.02098129
0.02039245
0.0199143
0.01955158
0.01936866
0.01941178
0.01960701
0.01977199
0.01977872
0.01955773
0.01911054
0.01851682
0.017945
0.01769869
0.01823998
0.01996994
0.02251626
0.02376136
0.0177854
0.08394103
0.06787121
0.05606657
0.04659178
0.03918182
0.03359234
0.0294529
0.02642223
0.02423369
0.02267318
0.02155342
0.02070735
0.02000107
0.01936292
0.01882109
0.01850181
0.018511
0.01877515
0.01905364
0.01917469
0.01905182
0.0186738
0.01809041
0.01742923
0.01693288
0.01700377
0.01810897
0.02016777
0.02206838
0.01707634
0.08389981
0.06775483
0.05586286
0.0463708
0.03899436
0.03344742
0.02933947
0.02632503
0.02413704
0.02255926
0.02139891
0.02047915
0.01965188
0.01883368
0.01807134
0.01757833
0.0175538
0.01791297
0.0183335
0.01859391
0.01859747
0.01831998
0.01779107
0.01710358
0.01643687
0.01609904
0.01652758
0.01797506
0.01998808
0.01611122
0.08386911
0.06766609
0.05569646
0.04620683
0.03886903
0.03335857
0.0292741
0.02626992
0.02407977
0.02248604
0.02129099
0.02030742
0.0193694
0.01837239
0.01737137
0.01668524
0.01663815
0.01711346
0.01768382
0.01808458
0.01821379
0.01803886
0.01757704
0.01689352
0.0161155
0.0154667
0.0153055
0.01597688
0.01731769
0.01472529
0.08385243
0.06762269
0.05563087
0.04613067
0.03880708
0.03331744
0.02924731
0.02624832
0.02405454
0.02244783
0.02122724
0.0201976
0.01917787
0.01804304
0.01684864
0.0160009
0.01593843
0.0165101
0.01719686
0.01770549
0.01793053
0.01783707
0.01743249
0.01675792
0.01589302
0.01497567
0.01423644
0.0139499
0.01406836
0.01273342
0.08384437
0.06760334
0.05560263
0.04610042
0.03878581
0.03330794
0.02924546
0.02624825
0.02405088
0.02243566
0.02120094
0.02014848
0.01909033
0.0178911
0.0166042
0.01567421
0.01559565
0.01620317
0.01694034
0.01749781
0.01777097
0.01772345
0.01735425
0.01668462
0.015755
0.01462856
0.01340235
0.01220659
0.01109352
0.01005578
0.08384157
0.06759752
0.05559491
0.04609446
0.03878555
0.03331369
0.02925468
0.02625783
0.02405855
0.02244074
0.02120485
0.02015537
0.01910771
0.01792912
0.01666934
0.01575442
0.01565873
0.01622758
0.01693778
0.01747649
0.01774334
0.01770024
0.0173389
0.01666562
0.0156946
0.01444424
0.01293545
0.01118669
0.009187984
0.0069389
0.0838412
0.06759733
0.05559532
0.04609667
0.03879052
0.03332116
0.02926365
0.02626765
0.02406989
0.02245695
0.02123395
0.02021352
0.0192242
0.01814903
0.01703365
0.01622728
0.01610992
0.01656736
0.01717391
0.01763075
0.01784049
0.01776158
0.0173793
0.01668934
0.01568992
0.01437448
0.0127218
0.01067185
0.008067313
0.004685331
0.08384163
0.0675983
0.05559663
0.04609812
0.03879198
0.03332278
0.02926614
0.02627274
0.02408122
0.02248163
0.0212856
0.02031719
0.01942355
0.01850991
0.01761588
0.01698068
0.01684691
0.01715009
0.01759652
0.01792528
0.01803987
0.01789316
0.01746455
0.01674388
0.01572398
0.01439348
0.01272681
0.01066001
0.008031584
0.00460621
0.08384284
0.06760035
0.05559871
0.04609868
0.03878984
0.03331851
0.02926221
0.02627331
0.02409272
0.02251431
0.02135644
0.02045455
0.01967295
0.0189337
0.01826154
0.01779701
0.01767169
0.01784529
0.01812262
0.01830746
0.01830795
0.01807367
0.01758101
0.01682004
0.01578952
0.01449336
0.01293758
0.01112282
0.009020671
0.006658825
0.08384634
0.06760767
0.05560846
0.04610692
0.0387925
0.03331572
0.02925808
0.02627441
0.02410794
0.02255609
0.02144302
0.02061314
0.0199421
0.01935838
0.01886634
0.01853822
0.01843655
0.01852559
0.0186687
0.01872252
0.01860975
0.01828207
0.01771827
0.01691662
0.01589479
0.0146938
0.01338792
0.01208609
0.01084992
0.009668957
0.08385476
0.06762778
0.05563768
0.04613829
0.0388151
0.03332731
0.02926436
0.02628444
0.02413271
0.0226093
0.02154257
0.02078267
0.0202108
0.0197546
0.01939888
0.01917203
0.01909657
0.01913406
0.01918017
0.01912987
0.01891686
0.01850051
0.01786812
0.01703543
0.0160547
0.01503366
0.01416739
0.01370266
0.01361373
0.01236291
0.08387124
0.06767067
0.05570249
0.04621359
0.03887639
0.03336869
0.02929372
0.02631351
0.02417422
0.02267753
0.02165435
0.02095773
0.02047026
0.02011522
0.01986123
0.01970886
0.0196573
0.01966335
0.01964173
0.01951227
0.01921527
0.01872087
0.01803007
0.01718501
0.01628693
0.01553101
0.0152444
0.0157514
0.01690465
0.01445849
0.08390089
0.06775711
0.05586581
0.04637411
0.03899843
0.03345513
0.02935872
0.02637182
0.02423999
0.02276535
0.02178001
0.0211379
0.0207205
0.02044552
0.0202689
0.02017302
0.02014279
0.02012971
0.02006102
0.01987138
0.01950691
0.0189485
0.01821563
0.01738331
0.01661041
0.01618332
0.01651833
0.01785695
0.01977534
0.01597855
0.08394022
0.06786945
0.0560642
0.04658917
0.03918011
0.03359515
0.02946873
0.02646734
0.0243361
0.02287701
0.02192251
0.02132608
0.02096682
0.02075664
0.02064147
0.02059129
0.0205808
0.02055707
0.02045636
0.02022232
0.01980787
0.01920473
0.0184569
0.01767932
0.01710027
0.01710755
0.01815326
0.02013602
0.02201906
0.01704947
0.08398443
0.06799628
0.05628324
0.0468458
0.03941754
0.03379146
0.02962849
0.02660436
0.02446575
0.02301491
0.02208425
0.02152607
0.02121624
0.02106092
0.02099766
0.02098731
0.02099596
0.02096808
0.02084773
0.02058568
0.02014439
0.01952962
0.01881334
0.01815611
0.01785202
0.01835371
0.0200521
0.02256004
0.02379429
0.01780457
0.08402398
0.06812173
0.05650999
0.04713483
0.03970744
0.03404525
0.02984009
0.02678375
0.02462842
0.02317801
0.02226498
0.02173976
0.02147416
0.02136824
0.02135176
0.02137808
0.02140568
0.02137868
0.02125091
0.02098325
0.0205532
0.01998598
0.01937851
0.01893809
0.01899578
0.01998599
0.02213219
0.02479914
0.02518543
0.01831686
0.08404427
0.06822873
0.05674237
0.04747227
0.04006821
0.03437068
0.03011096
0.02700637
0.02482046
0.0233609
0.02245988
0.02196463
0.02174137
0.0216829
0.02171084
0.02177156
0.02181696
0.0217945
0.02167393
0.02143458
0.02107929
0.02066126
0.02030498
0.02024169
0.0208057
0.02229717
0.02463828
0.02692453
0.02632454
0.01858591
0.08403044
0.06832433
0.05703933
0.04797423
0.0405974
0.03483077
0.03047261
0.02728125
0.02503794
0.0235541
0.02265865
0.02219198
0.02201164
0.02200102
0.02207225
0.02216454
0.02222458
0.02220899
0.02211437
0.02195387
0.02177536
0.0216795
0.02182475
0.02242423
0.02375451
0.02584108
0.02811456
0.02954557
0.0276153
0.01864509
0.08399775
0.06852993
0.05763844
0.04891911
0.04155929
0.03559984
0.0310122
0.02763898
0.02528214
0.02374656
0.02284642
0.02240662
0.0222705
0.02230871
0.022422
0.02254168
0.02261078
0.02260306
0.02255714
0.02254415
0.02269271
0.0231942
0.0242642
0.02605042
0.02854819
0.03142082
0.03355596
0.03387939
0.03029751
0.01914011
0.08412765
0.06941665
0.05941918
0.05125708
0.04370656
0.0370877
0.0319057
0.02813823
0.02556237
0.02392935
0.02300777
0.02259017
0.02249747
0.02258371
0.02273636
0.02287797
0.022949
0.02294837
0.02297373
0.02318596
0.02385407
0.02535897
0.02808013
0.03203706
0.03632731
0.04014183
0.04229858
0.04195455
0.03706954
0.02252683
0.08524304
0.07291207
0.06502888
0.05790281
0.04921769
0.04008518
0.03337273
0.02882311
0.02587808
0.02409183
0.02312726
0.0227211
0.02266374
0.02279041
0.02297505
0.02313178
0.02319892
0.02320452
0.02331537
0.0238104
0.02517958
0.02820791
0.03392913
0.04280729
0.04971665
0.05417559
0.0563977
0.05628893
0.05185945
0.03437064