/*--------------------------------*- C++ -*----------------------------------*\
| =========                 |                                                 |
| \\      /  F ield         | OpenFOAM: The Open Source CFD Toolbox           |
|  \\    /   O peration     | Version:  2506                                  |
|   \\  /    A nd           | Website:  www.openfoam.com                      |
|    \\/     M anipulation  |                                                 |
\*---------------------------------------------------------------------------*/
FoamFile
{
    version     2.0;
    format      ascii;
    arch        "LSB;label=32;scalar=64";
    class       volScalarField;
    location    "50/airRegion";
    object      nut;
}
// * * * * * * * * * * * * * * * * * * * * * * * * * * * * * * * * * * * * * //

dimensions      [0 2 -1 0 0 0 0];

internalField   nonuniform List<scalar> 
85779
(
0.09214867
0.0923406
0.09165161
0.09005492
0.0855931
0.07268974
0.06851905
0.06904381
0.07249747
0.07795017
0.08449077
0.09101732
0.09646766
0.1001626
0.1018731
0.1015173
0.09863463
0.0931774
0.08532584
0.07641787
0.06912123
0.06615806
0.06942777
0.0813868
0.08714232
0.08974357
0.09015032
0.08789234
0.07408077
0.0201606
0.09215469
0.09217837
0.09063709
0.08709559
0.07984068
0.07382915
0.07121153
0.07157044
0.07442131
0.07925975
0.08529924
0.09145494
0.09665183
0.1001996
0.1018771
0.1016459
0.09914608
0.09433229
0.0873033
0.07907266
0.07184174
0.06796017
0.06859936
0.07331533
0.07875159
0.08531155
0.08675899
0.08355206
0.06802082
0.01890806
0.09190683
0.0914506
0.08918851
0.0843497
0.07736618
0.07387675
0.07259542
0.07331062
0.07599043
0.0804253
0.08599732
0.09171337
0.09654965
0.09985244
0.1014481
0.1013833
0.0994483
0.09557975
0.08972895
0.08241975
0.07512506
0.0697099
0.06734008
0.06802425
0.07146156
0.08084763
0.08361521
0.08110605
0.06705994
0.01909129
0.09180461
0.09101824
0.08824003
0.08241802
0.07543676
0.07312023
0.07271799
0.07388226
0.07667913
0.08099419
0.08628754
0.09164076
0.09610636
0.09910798
0.1005601
0.1006278
0.09926847
0.09638586
0.09176089
0.08542699
0.07810272
0.07110198
0.06576466
0.06307689
0.06475722
0.07660771
0.08128498
0.07992138
0.06718749
0.01923442
0.09176347
0.09077131
0.08755223
0.0807725
0.07443232
0.07259692
0.07249661
0.07389305
0.07681524
0.08110416
0.08620771
0.09123656
0.09530868
0.0979374
0.09915009
0.09925552
0.0983843
0.09641018
0.0929423
0.0876047
0.08046535
0.07226674
0.06448125
0.05917295
0.05920001
0.07145178
0.07937902
0.0792782
0.06740731
0.01931761
0.09173577
0.09060798
0.08689359
0.07876558
0.07418215
0.07230129
0.07224652
0.07375219
0.0767416
0.08098478
0.08588976
0.09056774
0.09418167
0.09632949
0.09716635
0.09717282
0.0966645
0.09550102
0.09311336
0.08881074
0.08216533
0.07337323
0.06384092
0.05659096
0.05517396
0.06231134
0.07744733
0.07878
0.06746486
0.01935769
0.09170754
0.09049885
0.08660918
0.07801129
0.07369116
0.07198506
0.07205559
0.07363823
0.07663499
0.08077801
0.08543584
0.0897033
0.09276549
0.09429167
0.09457926
0.09432452
0.09405764
0.09364161
0.092297
0.08908985
0.08325679
0.07451149
0.06389764
0.05481131
0.05188334
0.05846321
0.076204
0.07827342
0.06731232
0.01937025
0.09167307
0.09039188
0.08639695
0.07760074
0.07339781
0.07183834
0.0719943
0.07359706
0.07654433
0.08053813
0.08490366
0.08870252
0.09111524
0.09186194
0.09139965
0.09070999
0.09059191
0.09091921
0.09062992
0.08858156
0.08381839
0.07572014
0.06479893
0.05418623
0.04937081
0.05513958
0.0744827
0.07749101
0.06693437
0.01936683
0.0916322
0.09026603
0.08616039
0.07727994
0.07324639
0.07181953
0.07201808
0.07359695
0.07645924
0.08027836
0.08433156
0.0876306
0.08932042
0.08914193
0.08772598
0.08643546
0.08641579
0.08753773
0.08834611
0.08749526
0.08395143
0.07693398
0.06645023
0.05487337
0.04771285
0.05106174
0.07065787
0.07607934
0.06629248
0.01935383
0.09158563
0.09010849
0.08584987
0.07702709
0.07321269
0.07187897
0.07207451
0.07360001
0.076363
0.08000753
0.08376156
0.08657514
0.08752863
0.08634576
0.08382795
0.0818171
0.08188629
0.08386217
0.08578596
0.08611425
0.08380394
0.07803336
0.06844878
0.05657033
0.04729624
0.04650658
0.05684199
0.07345859
0.06539201
0.01933057
0.09153721
0.08993204
0.0855091
0.07696459
0.07330778
0.07197474
0.07212393
0.07358392
0.07625209
0.07974456
0.08324666
0.08564734
0.08594943
0.08382874
0.08022387
0.07748504
0.07764106
0.08043165
0.08337532
0.08475987
0.08357514
0.07903893
0.07053323
0.05863388
0.04727455
0.04313871
0.05089399
0.0713708
0.06430002
0.01929539
0.09152598
0.08990708
0.08546629
0.07674325
0.07320229
0.0719628
0.07212348
0.07354429
0.0761393
0.07951862
0.08284364
0.08495933
0.08480481
0.08200539
0.07758072
0.07426546
0.07445566
0.07782405
0.08153267
0.08372302
0.08345744
0.08005043
0.07278829
0.06143516
0.04835031
0.04030934
0.04492736
0.06716248
0.06242165
0.01923992
0.09152035
0.08989648
0.08545916
0.07667458
0.07315747
0.07194722
0.07210606
0.07349817
0.07604536
0.07936037
0.08259961
0.08459039
0.08423915
0.08113669
0.07632058
0.07268932
0.07282941
0.07642526
0.08053466
0.08320661
0.08357483
0.08107195
0.07505019
0.06485688
0.05115435
0.03874019
0.03568195
0.0493171
0.05859609
0.01914285
0.09151764
0.08988989
0.08545005
0.07665269
0.07314179
0.07193698
0.07208981
0.07346589
0.07599405
0.07929801
0.08254744
0.08458138
0.08431046
0.08131339
0.0765851
0.07294978
0.07297016
0.07641841
0.08052815
0.08332297
0.08398807
0.08205256
0.07699335
0.06806905
0.05478779
0.03934363
0.02943112
0.03348978
0.05427391
0.01900345
0.09151684
0.08988782
0.08544732
0.07664849
0.07313926
0.0719352
0.0720868
0.07346353
0.07600422
0.07935119
0.08270358
0.08494103
0.0850193
0.08253607
0.07839081
0.07508674
0.07493517
0.07786914
0.08156059
0.08410289
0.08470065
0.0829232
0.0783416
0.07030815
0.05799113
0.04159872
0.02598438
0.02124009
0.0426371
0.01881118
0.09151701
0.08988815
0.08544787
0.07664988
0.07314199
0.07194117
0.07210111
0.07349796
0.07608369
0.07952455
0.08306044
0.08563434
0.08628285
0.08465304
0.08150683
0.07883201
0.0785011
0.08063693
0.08352835
0.08546871
0.08564368
0.08357836
0.07881261
0.07067979
0.05832029
0.04183349
0.02587628
0.02065787
0.04205903
0.01879731
0.09151812
0.08989085
0.08545163
0.07665663
0.07314965
0.07195433
0.07213157
0.07356654
0.07622587
0.0798011
0.08357537
0.08656028
0.08787997
0.0872294
0.08521599
0.08330446
0.08289407
0.08421739
0.0861177
0.08721475
0.08667582
0.08391903
0.07833411
0.06911247
0.05563207
0.03973502
0.02884593
0.0318918
0.05372301
0.01899238
0.09152108
0.08989792
0.08546151
0.0766804
0.07316943
0.07197423
0.07217176
0.07365692
0.07640973
0.0801446
0.0841827
0.08759414
0.0895725
0.08983675
0.08884535
0.08765298
0.08727249
0.08794327
0.08889511
0.08906487
0.0876303
0.08389037
0.07706871
0.06637435
0.05220179
0.03897213
0.03448186
0.04310365
0.05795031
0.0191209
0.09152681
0.08990875
0.08546889
0.07674986
0.07321677
0.07199683
0.07220768
0.07374842
0.07660549
0.08051086
0.08481519
0.08863019
0.09119273
0.0922226
0.09205423
0.09145584
0.09116001
0.09135293
0.09149792
0.09076153
0.08834434
0.08344552
0.07520195
0.06317157
0.04935015
0.04025279
0.0438371
0.06604453
0.06201597
0.01922537
0.0915379
0.08993341
0.08551137
0.07697054
0.07332265
0.07201241
0.07221983
0.07381742
0.07678165
0.0808563
0.08541442
0.08959367
0.09265101
0.09429193
0.09475449
0.09461391
0.0944054
0.09423883
0.09371257
0.09212761
0.08870205
0.08258
0.07298274
0.06024031
0.04801969
0.04304428
0.05030614
0.07099858
0.06408543
0.01928475
0.09158588
0.09010891
0.08585042
0.07703041
0.07322549
0.07191671
0.07217495
0.07384563
0.07691476
0.08114752
0.08593861
0.09044073
0.09391347
0.09603826
0.09697799
0.09717557
0.09702245
0.09655556
0.09544579
0.09306678
0.08864529
0.08134114
0.07065856
0.05790975
0.04786705
0.04650294
0.05658018
0.07330875
0.0652907
0.01932364
0.09163172
0.09026501
0.08615866
0.07727983
0.07325596
0.07185515
0.07211727
0.07383899
0.07699529
0.08136614
0.08636522
0.0911528
0.09497841
0.09749174
0.09879301
0.09922872
0.0990794
0.09832258
0.09666638
0.0935241
0.08814073
0.07975712
0.06827881
0.05592992
0.04816057
0.05111723
0.07057234
0.07602262
0.06625423
0.0193497
0.09167169
0.09038916
0.08639262
0.07759683
0.07340421
0.07187159
0.07208897
0.07382369
0.07703501
0.08151363
0.08669072
0.09172933
0.09585908
0.09869009
0.1002645
0.1008514
0.1006385
0.09955995
0.09734754
0.0934496
0.08717651
0.07794764
0.06621087
0.05499328
0.04973438
0.05522349
0.07445254
0.07747387
0.06692535
0.019364
0.0917052
0.09049442
0.08660242
0.07800488
0.07369707
0.07201877
0.07214618
0.07384314
0.07706163
0.08160508
0.08692299
0.09217802
0.09657116
0.0996639
0.1014387
0.1020941
0.1017316
0.1002608
0.09744116
0.09278721
0.0857654
0.07614923
0.0649316
0.0554236
0.0521838
0.05852463
0.07619406
0.07826922
0.06730864
0.01936727
0.09173251
0.09060212
0.08688509
0.07876006
0.07419427
0.07234292
0.07233793
0.07393475
0.0770961
0.08164902
0.08706462
0.09250161
0.0971228
0.1004302
0.1023403
0.1029799
0.1023614
0.1003904
0.09687464
0.09146466
0.08392435
0.07450606
0.06458003
0.05707876
0.05541584
0.06203837
0.07738168
0.07876995
0.06745466
0.019354
0.09175954
0.09076465
0.08754363
0.08076722
0.07445862
0.07265744
0.07259604
0.07405451
0.07709512
0.08160572
0.0870856
0.09268191
0.09750686
0.1009916
0.1029787
0.1035175
0.1025203
0.09991019
0.09557579
0.08940687
0.08162662
0.07302018
0.06503578
0.05968726
0.05950799
0.06776238
0.07897143
0.07923832
0.06738837
0.01931345
0.09180046
0.09101176
0.0882332
0.08242014
0.0754908
0.07321206
0.07282824
0.0740168
0.07687794
0.08133731
0.08689736
0.09266957
0.09769945
0.1013402
0.1033583
0.1037203
0.1022237
0.09882472
0.09353009
0.08658652
0.07882904
0.07157717
0.06610722
0.06332345
0.06483073
0.0762416
0.08121957
0.07990439
0.06716573
0.01923037
0.09190315
0.09144524
0.08918508
0.0843643
0.07746295
0.07400785
0.07270821
0.07339886
0.07609149
0.08061122
0.08637222
0.09240419
0.09767546
0.1014707
0.1034925
0.1036288
0.1015515
0.09725142
0.0908808
0.08313933
0.07557578
0.07002217
0.06757
0.06817967
0.07153681
0.08082621
0.08360484
0.08109357
0.06703756
0.01908753
0.09215205
0.09217467
0.09063825
0.08712184
0.07997109
0.07399481
0.07131816
0.07159705
0.07441313
0.07929655
0.08548055
0.09189254
0.09744663
0.1013963
0.1034127
0.1033244
0.1006825
0.09549724
0.08806109
0.07953564
0.07215645
0.06820203
0.06876848
0.07340119
0.07879142
0.08531369
0.08675405
0.0835419
0.06800318
0.01890501
0.09214721
0.09233837
0.091653
0.09008145
0.08569694
0.07288152
0.06863231
0.06903016
0.07240945
0.07788352
0.08455021
0.09130829
0.09708019
0.1011329
0.1031382
0.1028953
0.09987175
0.09407776
0.08588848
0.07677223
0.06939807
0.06638741
0.06956658
0.08141557
0.08714975
0.08974319
0.09014725
0.0878874
0.07407384
0.02016028
0.09218533
0.09226714
0.09100586
0.08843613
0.08295052
0.07287967
0.06958689
0.07017499
0.07345676
0.078689
0.08500681
0.09132353
0.09659896
0.1001835
0.1018817
0.1016578
0.0991258
0.09414931
0.08671648
0.07778351
0.06978084
0.06575085
0.06828078
0.08030976
0.08522378
0.08718743
0.08722207
0.08394576
0.06886682
0.01899954
0.09131314
0.09154443
0.08996055
0.08614201
0.08039331
0.07498171
0.0723246
0.07248989
0.07515917
0.07983999
0.08572104
0.0917092
0.09675007
0.1001895
0.1018456
0.1017275
0.09954699
0.09518652
0.08859545
0.08047128
0.07276552
0.06799663
0.06781072
0.07194715
0.07649357
0.07966868
0.07932919
0.07285447
0.05342078
0.01436246
0.09035974
0.08964675
0.08769032
0.08383687
0.07916591
0.07549035
0.07369935
0.07404615
0.07652562
0.08084703
0.08631405
0.09189992
0.09659525
0.09978593
0.101342
0.1013578
0.09969018
0.09622675
0.09082422
0.08378614
0.07635761
0.07041723
0.06742533
0.06753096
0.06946721
0.07198858
0.07162212
0.06502494
0.04706602
0.01354729
0.08992672
0.08840867
0.08579867
0.08163055
0.07745512
0.07472864
0.07368942
0.07446033
0.07707724
0.08131289
0.08653153
0.09177156
0.09609693
0.09897238
0.1003584
0.1004671
0.09931647
0.09678587
0.09260933
0.0866968
0.07960075
0.07253684
0.06689074
0.06355688
0.06283175
0.06463373
0.06522003
0.06027541
0.04484862
0.01375072
0.08975179
0.08779424
0.08467787
0.0801529
0.07619074
0.07387243
0.07324351
0.07433617
0.07713113
0.08136959
0.08641108
0.09132545
0.09524301
0.09771954
0.09883103
0.09893485
0.09821769
0.09654964
0.09352398
0.08872093
0.08212602
0.07432891
0.06653127
0.06031932
0.0572921
0.05836458
0.06050587
0.05763149
0.04425166
0.01398106
0.08966528
0.08747339
0.0840304
0.07921404
0.07540165
0.07325942
0.07283816
0.07411802
0.07701911
0.08122859
0.0860716
0.09062079
0.09405213
0.09600734
0.09669599
0.09665606
0.09625887
0.09537222
0.09342064
0.08972237
0.08385404
0.07588387
0.06669554
0.05828053
0.05329125
0.05336588
0.0569563
0.05589838
0.04393289
0.01409386
0.08960286
0.08726375
0.08363827
0.0786506
0.0748899
0.07287344
0.07258547
0.07396589
0.0768953
0.08101351
0.08560265
0.08971756
0.09255435
0.09382649
0.09389826
0.09354772
0.09336795
0.0932276
0.09232348
0.08975316
0.08482952
0.07724501
0.06745942
0.0574694
0.05065638
0.04976555
0.05401823
0.05426333
0.04337229
0.01411435
0.08954292
0.08707999
0.08332937
0.07827943
0.07458229
0.07267014
0.07246815
0.0738903
0.0767908
0.08076761
0.08505455
0.08866872
0.09079425
0.09119248
0.09040979
0.08956489
0.08953996
0.09018679
0.09036818
0.08896861
0.08515266
0.07838574
0.06875403
0.05784489
0.04926262
0.0468469
0.05093727
0.05222621
0.0424241
0.01407741
0.08948261
0.08689809
0.08303997
0.07799266
0.07439196
0.07257455
0.07242641
0.07385282
0.07669099
0.080501
0.08446384
0.08753792
0.08885561
0.08818718
0.08628663
0.08476501
0.08489359
0.08644446
0.08779404
0.08760165
0.08497542
0.07930215
0.07038537
0.05923806
0.04907118
0.04434092
0.04703064
0.04943558
0.04103467
0.01400062
0.0894248
0.08671835
0.08276008
0.07777159
0.07428127
0.07253683
0.07241324
0.07381942
0.07658062
0.08022334
0.08387474
0.08641819
0.08689509
0.08503184
0.0817918
0.07945754
0.0798006
0.08238912
0.08496306
0.08596
0.0845104
0.0800106
0.07209499
0.06123386
0.04991453
0.04255639
0.04215602
0.04579872
0.03920269
0.01388231
0.08937557
0.08655913
0.08253387
0.07764303
0.07423416
0.07252502
0.07240096
0.07377394
0.07645862
0.0799553
0.08334461
0.08543388
0.08515635
0.08215289
0.0775545
0.07440453
0.07501868
0.07863768
0.08234241
0.08439644
0.08399799
0.08061509
0.07380122
0.06355226
0.0514601
0.04165075
0.03851344
0.04161086
0.03674771
0.01370687
0.08935474
0.08649556
0.08241709
0.07751338
0.0741635
0.07249706
0.07237628
0.07371816
0.07633858
0.07972655
0.08293366
0.0847116
0.08390844
0.08008839
0.07448235
0.07070699
0.07150115
0.0758543
0.08037752
0.08321716
0.08364744
0.08123109
0.07553253
0.06623874
0.05398833
0.04187215
0.03509751
0.03598567
0.03306994
0.01343286
0.08934519
0.08646713
0.08237158
0.07745775
0.07412647
0.07247499
0.07234855
0.07366393
0.07624031
0.07956739
0.0826892
0.08433442
0.08330936
0.07913358
0.07306273
0.06895299
0.06975921
0.07440203
0.0793364
0.08262187
0.08359476
0.08190476
0.07719037
0.0690414
0.05740898
0.0438312
0.03255382
0.02800048
0.02762274
0.01298927
0.0893415
0.086456
0.0823541
0.07743792
0.07411178
0.07246237
0.07232834
0.07362759
0.07618619
0.0795053
0.08264314
0.08434134
0.08341199
0.07936253
0.07339849
0.06928168
0.06994652
0.0744193
0.07934066
0.08271291
0.08390738
0.08263359
0.07861532
0.0714807
0.0608852
0.04719789
0.03297476
0.02333482
0.02132219
0.01233939
0.08934059
0.0864533
0.08235007
0.0774339
0.07410906
0.07245956
0.07232346
0.0736228
0.0761945
0.07956038
0.0828127
0.08474301
0.08422382
0.0807975
0.07555218
0.07178989
0.07216376
0.07599295
0.08043885
0.0835192
0.0845933
0.0833804
0.07965071
0.0731032
0.06338966
0.0504589
0.03547971
0.02189445
0.01458562
0.0114969
0.08934082
0.08645391
0.08235109
0.07743544
0.07411162
0.072465
0.07233687
0.07365621
0.07627394
0.07973878
0.08319166
0.08550485
0.08566316
0.08329604
0.07932926
0.07627938
0.07626608
0.07904088
0.08255017
0.08496755
0.08558761
0.08406538
0.08013134
0.07346111
0.06368993
0.05073978
0.03570836
0.02192602
0.0143505
0.01144878
0.08934215
0.08645774
0.08235699
0.0774423
0.07411914
0.0724782
0.07236769
0.07372571
0.07641863
0.08002354
0.08373343
0.0865087
0.087456
0.08629034
0.08374506
0.08157112
0.08130624
0.08301156
0.08535183
0.08685162
0.0867483
0.08458795
0.07998438
0.07249469
0.06170937
0.04787395
0.03329277
0.02293943
0.02041632
0.0122607
0.08934614
0.08646966
0.08237579
0.07746423
0.07413768
0.07249976
0.07241099
0.07382003
0.07660805
0.08037793
0.08436829
0.0876138
0.08931506
0.08923028
0.08790627
0.08653976
0.08621285
0.08710059
0.08835905
0.08887479
0.08789417
0.08486137
0.07925742
0.07055184
0.05855182
0.04455531
0.0325751
0.02712779
0.02689804
0.01291219
0.08935577
0.08649828
0.0824217
0.07752078
0.07417707
0.0725285
0.0724572
0.07392109
0.076813
0.08075676
0.08502575
0.08870632
0.09105603
0.0918404
0.09145539
0.09073943
0.09045975
0.09078843
0.09116824
0.09075829
0.08884587
0.08480273
0.07801791
0.06802011
0.05523371
0.04245182
0.03477524
0.03497786
0.03239247
0.01337075
0.08937638
0.08656131
0.08253772
0.07764978
0.07424809
0.07256014
0.0724943
0.07400879
0.07700227
0.08111514
0.08564563
0.08971079
0.09259445
0.09404875
0.09435757
0.09413367
0.09393239
0.09387251
0.09355525
0.0923147
0.08947207
0.08436259
0.07636995
0.06530644
0.05254013
0.0420285
0.03824125
0.04097673
0.03632127
0.0136643
0.08942516
0.08671928
0.08276193
0.07777587
0.07429329
0.07257237
0.07251224
0.07406918
0.07715167
0.08141782
0.08618512
0.09058569
0.09390755
0.09587801
0.09669783
0.09683395
0.09669462
0.09633315
0.09543961
0.09344597
0.08969906
0.08353904
0.0744613
0.06276722
0.05077854
0.04285315
0.04204704
0.04548929
0.03899396
0.01385721
0.08948223
0.08689717
0.08303892
0.07799339
0.07440079
0.07260835
0.07252515
0.07410105
0.07724948
0.08164498
0.08662125
0.09131523
0.09500365
0.0973809
0.09858184
0.0989727
0.09885206
0.09821634
0.09680315
0.09409868
0.08948159
0.08233769
0.07237606
0.06047901
0.04974678
0.04460438
0.04704559
0.04934668
0.04096843
0.01398798
0.08954154
0.08707676
0.08332496
0.07827644
0.07458823
0.07270194
0.07256287
0.07412382
0.07730439
0.08179668
0.08695041
0.09190135
0.09590341
0.09861026
0.1000981
0.1006561
0.1004936
0.09956364
0.0976322
0.09422543
0.08877851
0.08079815
0.07030617
0.05879657
0.04979139
0.04709143
0.05101746
0.05223779
0.04242672
0.01407038
0.08960045
0.08725842
0.08363126
0.07864577
0.07489585
0.07290597
0.07267587
0.0741768
0.07734263
0.08188813
0.08718159
0.09235432
0.09662799
0.09960651
0.1013075
0.1019523
0.1016698
0.1003843
0.09788776
0.0937611
0.08755742
0.07902853
0.06859525
0.05817582
0.05107459
0.04998368
0.05411308
0.05430314
0.04338855
0.01410677
0.08966218
0.08746732
0.08402357
0.07921259
0.07541496
0.07329991
0.07292831
0.07430423
0.07739004
0.08193224
0.08732127
0.09268066
0.09719015
0.1003933
0.1022437
0.1028957
0.1023955
0.1006548
0.09750205
0.09261909
0.08578339
0.0771208
0.06748703
0.0587976
0.05361742
0.0535091
0.05702313
0.05592779
0.04393595
0.01408333
0.08974881
0.08779019
0.08467674
0.080163
0.07622282
0.07393163
0.07333951
0.07449795
0.07742235
0.08190201
0.08734833
0.09286824
0.09758738
0.1009777
0.1029214
0.1035005
0.1026695
0.1003422
0.09640323
0.09071175
0.08341481
0.07514405
0.06706768
0.06070641
0.05756114
0.05832549
0.06049651
0.05763377
0.04423677
0.01396838
0.08992524
0.0884108
0.08581075
0.08166259
0.07751862
0.07481443
0.07379062
0.07459093
0.07728311
0.08168003
0.08718837
0.09287612
0.09780032
0.1013544
0.1033461
0.1037805
0.1025059
0.09944856
0.09457128
0.08800442
0.08042223
0.07305239
0.06722848
0.06378346
0.06296156
0.06464818
0.06522543
0.0602621
0.04482035
0.01373755
0.09036086
0.08965726
0.08771723
0.0838954
0.07926199
0.07559289
0.07378653
0.07412312
0.07663114
0.08105373
0.08672815
0.09265132
0.09780643
0.1015174
0.1035285
0.1037701
0.1019736
0.09807591
0.09213223
0.08462429
0.07687774
0.07074828
0.06763625
0.06765449
0.06952715
0.07199765
0.07161282
0.06499909
0.04703285
0.01353499
0.09131545
0.09155641
0.08998916
0.08621056
0.08049163
0.07506069
0.07236554
0.07248869
0.07515225
0.07989751
0.0859383
0.09219811
0.0976138
0.1014755
0.1034925
0.1035378
0.1012284
0.0964986
0.08948467
0.08103072
0.07312689
0.06823533
0.06794618
0.07199932
0.07650681
0.07965968
0.07931025
0.07282725
0.05339273
0.01435451
0.09218411
0.09226798
0.09102259
0.08852569
0.08322367
0.07293708
0.06956927
0.07010376
0.07336262
0.0786431
0.08510148
0.09166127
0.09727137
0.1012297
0.1032409
0.1031481
0.1004881
0.09517964
0.0873958
0.07821887
0.07008544
0.06595771
0.06837695
0.08032004
0.08522183
0.08718064
0.08721225
0.08393306
0.06885346
0.01899832
0.09197888
0.09172648
0.09014938
0.08710379
0.08065569
0.07229446
0.07002327
0.07100042
0.07430764
0.0793841
0.08545967
0.09150351
0.09652908
0.09994345
0.1016096
0.1015651
0.09953684
0.09529201
0.08859634
0.07990563
0.07116336
0.06550839
0.06625575
0.07772274
0.08349248
0.08536733
0.08531794
0.0823534
0.06871176
0.01920482
0.09048323
0.09000401
0.08838607
0.08481063
0.07964416
0.07498801
0.07275615
0.07308499
0.07576405
0.08035323
0.08606209
0.09182451
0.09663645
0.09990627
0.1015156
0.1015468
0.09981848
0.096134
0.09026583
0.08249939
0.0743373
0.06828577
0.06652714
0.06942861
0.07331606
0.0752882
0.07414826
0.06749481
0.04938424
0.01388638
0.08916434
0.08735082
0.08559627
0.08270203
0.0789736
0.07572721
0.07405996
0.0744286
0.07690015
0.08117276
0.08652022
0.09191577
0.09639288
0.09940259
0.1008819
0.1009963
0.09970042
0.09683018
0.09212421
0.08559701
0.07812031
0.07140858
0.06716055
0.06588243
0.06626627
0.06631595
0.06370576
0.05565191
0.03851149
0.01128236
0.08859254
0.08574411
0.08329397
0.08036663
0.07729514
0.07493478
0.07394317
0.07470043
0.07731147
0.08152004
0.0866416
0.09170161
0.09580152
0.09847098
0.09973853
0.09988526
0.0990178
0.09699389
0.09348149
0.08822263
0.08151084
0.07431984
0.06795001
0.06330307
0.06033705
0.05816362
0.05464266
0.0470804
0.03256508
0.01046477
0.08838392
0.08503033
0.08206017
0.07884961
0.07592297
0.07395742
0.07339516
0.07449422
0.07729883
0.08151997
0.08646543
0.09118886
0.09485566
0.09708587
0.0980255
0.09810308
0.09758753
0.0963529
0.09395933
0.08991475
0.08407515
0.07681367
0.06898767
0.06167753
0.05578199
0.05151989
0.04754094
0.04133738
0.02953927
0.01038683
0.0882988
0.08471042
0.08144833
0.07801407
0.07509049
0.07328095
0.07293919
0.07424193
0.07716415
0.081358
0.08609405
0.09042681
0.09356478
0.09521332
0.09565946
0.09552632
0.09526715
0.09476773
0.09342563
0.09054521
0.08568741
0.078807
0.07034485
0.06128805
0.05310012
0.04695566
0.04255576
0.03758066
0.02790727
0.01041286
0.08824849
0.08452667
0.08110018
0.07754206
0.07461091
0.07288531
0.07266586
0.07407571
0.07703453
0.08113602
0.08560176
0.08946359
0.09194366
0.09281687
0.09254314
0.09202589
0.09195034
0.09219539
0.09190285
0.09017553
0.08639011
0.08025248
0.07187408
0.06200196
0.05222713
0.04441441
0.03924993
0.03480074
0.02662636
0.01036834
0.08820672
0.08438413
0.08084793
0.07723106
0.07431928
0.07266355
0.07252365
0.07398552
0.07692618
0.08088601
0.08503043
0.08834347
0.09001976
0.08987324
0.08858042
0.08748079
0.08757748
0.08867847
0.08952056
0.08897819
0.08632812
0.08116358
0.07338279
0.06345717
0.05276133
0.04345094
0.03706422
0.03231419
0.0252493
0.01025351
0.08816898
0.0842591
0.08063692
0.07699822
0.07412688
0.07253513
0.07244937
0.07392998
0.07682111
0.08061509
0.08441473
0.08712754
0.08786563
0.08642558
0.08374347
0.0818558
0.08221588
0.08439371
0.08652209
0.08721061
0.08571907
0.08163162
0.07475473
0.06530173
0.05427941
0.04370586
0.0356968
0.03000717
0.02365939
0.01008432
0.0881366
0.08415158
0.08045829
0.07682118
0.07399707
0.07245645
0.07240214
0.07387845
0.07670536
0.08033398
0.08380199
0.08591635
0.08564941
0.0826969
0.07825927
0.07542627
0.07625181
0.07977203
0.08330153
0.08521055
0.08483437
0.08181968
0.0759487
0.06725175
0.05636102
0.04490818
0.03517897
0.028151
0.02183821
0.009849994
0.08811209
0.08406895
0.08032197
0.07669919
0.07391413
0.07240542
0.07236195
0.07381857
0.07657946
0.08006499
0.08325522
0.08485383
0.08366953
0.07923295
0.0729441
0.06918171
0.0706458
0.07557082
0.08039035
0.08336427
0.08395836
0.08190987
0.07702199
0.06920838
0.05877236
0.04686721
0.03563544
0.02688918
0.01972032
0.009510576
0.08809945
0.08402722
0.08025205
0.0766253
0.0738609
0.07236938
0.07232372
0.07375342
0.07645656
0.0798374
0.08283828
0.08408809
0.08227496
0.07680479
0.06919626
0.06476884
0.06668376
0.07258006
0.07827637
0.08200325
0.08332269
0.08205391
0.0780412
0.07114927
0.06144169
0.04956911
0.0371641
0.02636781
0.01758899
0.008996094
0.08809378
0.0840087
0.08022138
0.07659172
0.07383449
0.07234623
0.07229009
0.07369352
0.07635576
0.07967982
0.08259648
0.08370343
0.08163404
0.07573494
0.06755838
0.06279127
0.06482413
0.07109027
0.07719299
0.08131457
0.08307189
0.08234016
0.07901008
0.07295061
0.06410095
0.05272764
0.03980553
0.02715047
0.01650189
0.008213898
0.08809194
0.08400275
0.0802115
0.07658114
0.07382526
0.07233422
0.07226716
0.07365304
0.0762983
0.07961814
0.08255871
0.0837325
0.08178084
0.07603792
0.06799573
0.06321652
0.06507888
0.07114586
0.07721829
0.08138189
0.0832747
0.08280252
0.07989306
0.07444298
0.06635588
0.05569217
0.04294556
0.02932469
0.01672774
0.006987167
0.08809171
0.08400205
0.08021039
0.0765803
0.07382449
0.07233141
0.07226027
0.0736446
0.07630272
0.07967333
0.08274356
0.0841901
0.08273887
0.07778442
0.07067199
0.06625574
0.06762884
0.07287008
0.07840466
0.08222972
0.08394148
0.0834297
0.08062896
0.07545327
0.06781175
0.05770442
0.04540364
0.03162457
0.01759562
0.005465511
0.0880919
0.08400266
0.08021141
0.07658177
0.07382677
0.07233611
0.07227217
0.0736755
0.07637959
0.07985443
0.08314817
0.08504632
0.08444096
0.08089342
0.07556551
0.07195987
0.07253544
0.07630714
0.0807154
0.08379626
0.08501107
0.0841609
0.08113119
0.07580714
0.06807821
0.05792775
0.04560761
0.03179903
0.01767915
0.005387206
0.08809251
0.08400449
0.08021442
0.07658533
0.07383184
0.07234802
0.07230243
0.07374466
0.0765246
0.08014544
0.08372146
0.08615833
0.08653064
0.08456199
0.08117205
0.07860537
0.07858843
0.0808577
0.08382393
0.08587571
0.08634118
0.08489381
0.08132518
0.07544787
0.06710539
0.05630338
0.0434662
0.02970178
0.01682689
0.006837878
0.08809462
0.08401125
0.08022567
0.07659796
0.07384456
0.07236814
0.07234711
0.07384175
0.07671816
0.08050981
0.08438877
0.08736055
0.08863533
0.08801746
0.08618074
0.08454887
0.08429751
0.08548408
0.08716594
0.08814157
0.08773273
0.08551324
0.0811769
0.07446277
0.06520942
0.05358197
0.04043457
0.02748107
0.01653851
0.008087529
0.08810038
0.08403003
0.08025683
0.07663246
0.07387316
0.07239769
0.07239934
0.07395017
0.07693126
0.08090127
0.08507568
0.08852812
0.09054837
0.09096047
0.09024467
0.0893441
0.08907268
0.0895748
0.09026674
0.0902823
0.08898525
0.08590268
0.08065875
0.0729609
0.06274206
0.05051233
0.03774317
0.02650508
0.01739425
0.008892173
0.08811288
0.08407131
0.08032608
0.07670579
0.07392683
0.07243775
0.07245138
0.07405118
0.07713198
0.08127321
0.08572028
0.08958618
0.09219754
0.0933674
0.09343972
0.09307991
0.09287044
0.09294154
0.09289834
0.09209714
0.08995062
0.08597438
0.07976495
0.0710705
0.06004765
0.04770227
0.03605315
0.02690595
0.01946452
0.009440284
0.088137
0.08415278
0.08046055
0.07682564
0.07400834
0.07249013
0.07249935
0.07413071
0.07729399
0.08158806
0.08627895
0.09049782
0.0935794
0.09531165
0.09594379
0.09597492
0.09583553
0.09560626
0.09499472
0.09348598
0.09054074
0.08567976
0.07852516
0.0689573
0.05747198
0.04558158
0.03549556
0.02818381
0.02170731
0.009813106
0.08816873
0.0842584
0.08063631
0.07699939
0.07413551
0.07256802
0.07254827
0.07418462
0.0774035
0.0818241
0.08672847
0.09125199
0.0947184
0.09688224
0.09792261
0.09823177
0.09813346
0.09765402
0.09655967
0.09440608
0.09069743
0.08498555
0.07696597
0.0667333
0.05518297
0.04424421
0.03597683
0.03009287
0.02365389
0.01007113
0.08820559
0.08438104
0.08084402
0.07722884
0.07432545
0.07269499
0.07261951
0.07422737
0.07746628
0.08197961
0.08706522
0.09185452
0.09564668
0.09815533
0.09950106
0.09999973
0.09989199
0.09915928
0.0976008
0.09481674
0.09036112
0.08385889
0.0751387
0.06457955
0.05346831
0.04388958
0.03732968
0.03245365
0.0253117
0.01025004
0.08824648
0.08452141
0.08109387
0.07753838
0.0746173
0.07291731
0.07275695
0.07429436
0.07750711
0.08206981
0.08729945
0.09231933
0.09639356
0.09918626
0.100762
0.1013737
0.1011893
0.1001561
0.09809607
0.09465136
0.08945542
0.08227191
0.07317726
0.06283728
0.05276836
0.0447724
0.0394886
0.03494307
0.02669262
0.01036219
0.08829623
0.08470445
0.08144293
0.07801447
0.07510409
0.07331976
0.07302798
0.07443295
0.07755588
0.08211214
0.0874421
0.09265778
0.09697848
0.1000087
0.1017533
0.1024049
0.1020592
0.1006393
0.09798924
0.09381336
0.08788982
0.08023355
0.07125631
0.06188044
0.05349441
0.04721944
0.04273156
0.03767995
0.02794304
0.01040007
0.08838173
0.08502722
0.08206277
0.0788644
0.07595557
0.0740129
0.07348656
0.07465666
0.07760502
0.08209313
0.08748226
0.09286531
0.0974054
0.1006366
0.1024976
0.1031173
0.1025112
0.1005861
0.09721321
0.09220195
0.08558219
0.07777175
0.06959341
0.06206768
0.05603276
0.05166311
0.0476216
0.04137234
0.02953768
0.01036965
0.08859228
0.0857493
0.08331442
0.08040791
0.0773581
0.07501329
0.07403643
0.07482885
0.0775284
0.08192025
0.08736286
0.09291147
0.09766106
0.1010687
0.1030035
0.1035262
0.1025593
0.0999968
0.09574281
0.08977219
0.08250814
0.07494023
0.06832335
0.06351336
0.06043917
0.05819309
0.05463584
0.04705207
0.03252947
0.01044657
0.08916726
0.08736758
0.08563644
0.0827682
0.07906383
0.07582108
0.07414047
0.0745064
0.07701897
0.08141057
0.08698937
0.09275249
0.09772604
0.1012985
0.1032776
0.1036577
0.1022569
0.09895253
0.09368074
0.08663881
0.07878146
0.07180434
0.06736097
0.06594638
0.06625633
0.06626753
0.06364262
0.05558345
0.0384548
0.01126632
0.09048709
0.09002146
0.08842064
0.08487222
0.07974866
0.07509737
0.07281961
0.07310262
0.07578209
0.08044718
0.08633163
0.09238657
0.0975995
0.1013229
0.1033276
0.1035555
0.1017214
0.09767546
0.0913697
0.08323338
0.07480434
0.06854089
0.06660191
0.06939201
0.07325318
0.07521945
0.07407968
0.06742623
0.04932747
0.01387559
0.09197707
0.0917256
0.09015358
0.08712879
0.08074972
0.07244474
0.07010946
0.07098987
0.07425804
0.07938357