/*--------------------------------*- C++ -*----------------------------------*\
| =========                 |                                                 |
| \\      /  F ield         | OpenFOAM: The Open Source CFD Toolbox           |
|  \\    /   O peration     | Version:  2506                                  |
|   \\  /    A nd           | Website:  www.openfoam.com                      |
|    \\/     M anipulation  |                                                 |
\*---------------------------------------------------------------------------*/
FoamFile
{
    version     2.0;
    format      ascii;
    arch        "LSB;label=32;scalar=64";
    class       volVectorField;
    location    "50/airRegion";
    object      U;
}
// * * * * * * * * * * * * * * * * * * * * * * * * * * * * * * * * * * * * * //

dimensions      [0 1 -1 0 0 0 0];

internalField   nonuniform List<vector> 
85779
(
(-0.001717832 -0.002612809 -0.02359283)
(-0.002641703 -0.005381302 -0.02441129)
(-0.003085327 -0.0080916 -0.02662681)
(-0.003661928 -0.008635125 -0.031627)
(0.0009867678 -0.0006607217 -0.04118199)
(0.0159245 0.007733749 -0.08876836)
(0.03555381 0.01539842 -0.1147554)
(0.0589442 0.02761836 -0.1310824)
(0.08124908 0.0409036 -0.1367592)
(0.1007309 0.05369971 -0.1333411)
(0.1164162 0.06489919 -0.1228495)
(0.1279934 0.07391961 -0.1069947)
(0.1356473 0.08059573 -0.08716765)
(0.1397568 0.08492852 -0.06447937)
(0.1406317 0.08686855 -0.03989088)
(0.1382978 0.08614641 -0.01448206)
(0.1320404 0.08186676 0.01121597)
(0.1223598 0.0743441 0.03392868)
(0.1094747 0.06419356 0.05318768)
(0.09286904 0.05154294 0.06754653)
(0.07197158 0.03675321 0.07493162)
(0.04698911 0.02121336 0.07322104)
(0.02064997 0.008680734 0.06257513)
(0.002575498 -0.005983128 0.03628678)
(0.001421777 -0.02042196 0.02859906)
(-0.0008387107 -0.01899093 0.01990619)
(-0.004899256 -0.01657825 0.01777537)
(-0.008536845 -0.01640231 0.01544971)
(-0.01154345 -0.0171682 0.01303231)
(-0.003264094 -0.0081304 0.00292853)
(-0.004890247 -0.002202943 -0.04391516)
(-0.006397379 -0.004323821 -0.04676629)
(-0.004084012 -0.005726221 -0.05183006)
(0.003209969 -0.001534445 -0.06285403)
(0.007692859 0.0126676 -0.09096792)
(0.01875658 0.02240569 -0.1120661)
(0.04065772 0.02741978 -0.1279229)
(0.06468012 0.03343238 -0.1378115)
(0.08732252 0.04072358 -0.1396983)
(0.1069694 0.04838215 -0.1342031)
(0.1227184 0.05551198 -0.122619)
(0.134353 0.06149201 -0.1062794)
(0.1421347 0.06599233 -0.08635902)
(0.1464778 0.06885937 -0.06383365)
(0.1476907 0.06996504 -0.03955945)
(0.1457837 0.06905583 -0.01454683)
(0.1399829 0.06557377 0.0107827)
(0.1307074 0.05977229 0.03354602)
(0.1183414 0.05206017 0.05343411)
(0.1024845 0.04283184 0.06929685)
(0.08258449 0.032649 0.07964663)
(0.0588191 0.02234581 0.08318857)
(0.03380769 0.01235369 0.08043795)
(0.01500678 -0.0005596728 0.07085492)
(0.007888302 -0.01476324 0.06013915)
(4.344819e-05 -0.01534986 0.03907646)
(-0.0131264 -0.01443523 0.03366745)
(-0.02563146 -0.01375601 0.02734928)
(-0.04280619 -0.01211858 0.02203774)
(-0.06422564 0.0005774411 -0.0007170397)
(-0.007409792 -0.001571972 -0.05392467)
(-0.009321701 -0.003017315 -0.058151)
(-0.002702483 -0.00340629 -0.06452872)
(0.005165279 0.002811736 -0.08895514)
(0.01128259 0.01480311 -0.1120142)
(0.02541188 0.02306365 -0.1276537)
(0.04753825 0.02791672 -0.138722)
(0.07186405 0.0326023 -0.1437521)
(0.09505958 0.03777453 -0.1422874)
(0.1151728 0.04311956 -0.1347902)
(0.1312589 0.04812758 -0.1221767)
(0.143181 0.05236138 -0.1054649)
(0.1512861 0.05553488 -0.08560669)
(0.156034 0.05748129 -0.06341842)
(0.1577346 0.05805794 -0.0396261)
(0.156381 0.05703527 -0.01510262)
(0.1512204 0.05402381 0.009855213)
(0.1425377 0.0491645 0.03274619)
(0.1308148 0.04269816 0.05334114)
(0.115824 0.03501329 0.0708039)
(0.09709516 0.02657774 0.08408577)
(0.0746971 0.01788216 0.09205777)
(0.05043106 0.008933672 0.09386032)
(0.02875193 -0.001631478 0.08839093)
(0.0149338 -0.01142931 0.07676285)
(0.0004617653 -0.01259875 0.04981748)
(-0.02094644 -0.01266136 0.04078887)
(-0.04238361 -0.01171585 0.03085873)
(-0.07035058 -0.01018196 0.02274785)
(-0.09980075 -0.002715781 -0.007419835)
(-0.009001009 -0.0009743923 -0.05896052)
(-0.01107838 -0.00178362 -0.06380616)
(-0.002268011 -0.001465005 -0.07047977)
(0.006867904 0.005050753 -0.09931286)
(0.0150911 0.01486241 -0.1215304)
(0.03137075 0.02124143 -0.1362352)
(0.05442473 0.02563613 -0.1450186)
(0.07945191 0.02961307 -0.1474092)
(0.1032367 0.03363748 -0.1438068)
(0.1237898 0.03760647 -0.1349332)
(0.1402139 0.04125659 -0.121627)
(0.1524632 0.04431765 -0.1047618)
(0.1609584 0.04658291 -0.08513636)
(0.1661882 0.0479045 -0.06342843)
(0.1684488 0.04813261 -0.04023495)
(0.1677034 0.04703848 -0.01627891)
(0.1632303 0.04429264 0.0082348)
(0.155139 0.03992145 0.03118919)
(0.1439997 0.03409225 0.05228858)
(0.1297879 0.02717424 0.07090331)
(0.112136 0.01958477 0.08617183)
(0.09087521 0.01174601 0.09695495)
(0.06680235 0.003922262 0.1016108)
(0.0423891 -0.003792964 0.09820251)
(0.02273821 -0.00974647 0.08663436)
(0.002039757 -0.01107357 0.05834908)
(-0.02588743 -0.01115205 0.04382615)
(-0.05474109 -0.009479212 0.03158543)
(-0.08902878 -0.007841889 0.02201261)
(-0.1184789 -0.002784685 -0.01118873)
(-0.009810208 -0.0005247766 -0.06169608)
(-0.01175495 -0.000823729 -0.06699409)
(-0.000291174 9.794168e-05 -0.07393492)
(0.007845386 0.006428964 -0.1095845)
(0.0169866 0.0138235 -0.1275024)
(0.0366125 0.01872922 -0.1410241)
(0.06111131 0.02244968 -0.1483056)
(0.08687279 0.02582387 -0.1491627)
(0.1110874 0.02906196 -0.1443534)
(0.1319118 0.03212145 -0.1347202)
(0.1485549 0.03486139 -0.1211135)
(0.161066 0.03711915 -0.1043451)
(0.1699246 0.03875339 -0.08511637)
(0.1756311 0.03963793 -0.06399605)
(0.1784521 0.0396137 -0.04146745)
(0.1783089 0.03843791 -0.01811304)
(0.1745157 0.03580946 0.005901127)
(0.1669863 0.03166575 0.02883501)
(0.1563721 0.02616684 0.05018007)
(0.142857 0.01968579 0.06944205)
(0.1261988 0.01264042 0.08584295)
(0.1060564 0.005495102 0.09831445)
(0.08239631 -0.001270393 0.1050702)
(0.05598572 -0.006856306 0.1037943)
(0.0308214 -0.01004526 0.09328057)
(0.005507885 -0.01080932 0.06833342)
(-0.0265813 -0.009670792 0.04511223)
(-0.06164021 -0.007397214 0.03188185)
(-0.09981849 -0.005638628 0.0213726)
(-0.1288298 -0.002112384 -0.01313177)
(-0.01007007 -0.0002324302 -0.06311985)
(-0.0117757 -0.0001231365 -0.06844646)
(0.0007069086 0.001329662 -0.07540462)
(0.01010712 0.006526812 -0.1118633)
(0.02071584 0.01187668 -0.1293688)
(0.0418518 0.01590744 -0.1427088)
(0.06731743 0.01912262 -0.1494402)
(0.09364071 0.02197112 -0.1496108)
(0.1181509 0.02460625 -0.1442446)
(0.1391236 0.02702053 -0.1343244)
(0.1558918 0.0291321 -0.1207409)
(0.1686036 0.03083852 -0.1042816)
(0.1777897 0.03204138 -0.08558131)
(0.1839513 0.03262714 -0.06512249)
(0.187312 0.03241904 -0.04329115)
(0.1877374 0.03114745 -0.02054319)
(0.1845809 0.02852833 0.002945801)
(0.1775658 0.02444967 0.02580473)
(0.1674194 0.01912823 0.04719266)
(0.1545176 0.01295135 0.06672162)
(0.1387448 0.006338969 0.08366158)
(0.1197185 -0.0002219435 0.09705839)
(0.09680052 -0.006126958 0.1053275)
(0.06970038 -0.01051193 0.106001)
(0.0396884 -0.01234105 0.09752322)
(0.01134902 -0.01208523 0.0802972)
(-0.02295292 -0.008106858 0.04562173)
(-0.06376955 -0.005790778 0.03224498)
(-0.1045719 -0.003996087 0.02119356)
(-0.1337323 -0.001502984 -0.01391682)
(-0.01001216 -0.0001143864 -0.06394219)
(-0.01132333 0.0001019582 -0.06920382)
(0.001897136 0.001727437 -0.07620975)
(0.01235268 0.006336739 -0.112625)
(0.02418608 0.01042758 -0.1300274)
(0.04645856 0.0135759 -0.1432453)
(0.07272405 0.0161456 -0.1496569)
(0.09951057 0.01844226 -0.1494693)
(0.1242275 0.02056371 -0.1438773)
(0.1452764 0.0224886 -0.133947)
(0.16212 0.02414803 -0.120592)
(0.1750015 0.02546883 -0.1045766)
(0.1844971 0.02637687 -0.08648031)
(0.1911027 0.02676153 -0.06671177)
(0.1949858 0.02641938 -0.0455704)
(0.1959348 0.02504227 -0.02339698)
(0.1933389 0.02235851 -0.0004109463)
(0.1867692 0.01825344 0.02236888)
(0.1770392 0.01305826 0.04368566)
(0.164692 0.0071665 0.06325723)
(0.1497147 0.000975875 0.0803924)
(0.1316652 -0.005017017 0.09428535)
(0.1097033 -0.01021176 0.103567)
(0.08298157 -0.01382523 0.1058225)
(0.05173045 -0.01486127 0.09854302)
(0.02016134 -0.01296822 0.08217428)
(-0.0180643 -0.007222472 0.04650466)
(-0.06231325 -0.005095234 0.03286317)
(-0.1052467 -0.003118727 0.02149004)
(-0.1353003 -0.001173201 -0.0139735)
(-0.009796469 -0.0001107266 -0.06463926)
(-0.01065123 2.208717e-05 -0.06986081)
(0.00309632 0.001754639 -0.07722586)
(0.01427242 0.006022505 -0.1134498)
(0.02703502 0.009228296 -0.1306805)
(0.05026585 0.01156289 -0.1435905)
(0.07723007 0.01350704 -0.1496551)
(0.1044009 0.01531322 -0.149211)
(0.1292675 0.01701838 -0.143539)
(0.1503626 0.01857011 -0.1337332)
(0.167271 0.01989844 -0.1207036)
(0.180321 0.02094527 -0.105184)
(0.1901298 0.02165087 -0.0877014)
(0.197187 0.02190269 -0.06859636)
(0.2015882 0.02146571 -0.04808683)
(0.2030099 0.01998379 -0.02640703)
(0.2008621 0.01719445 -0.003843457)
(0.1946435 0.01303008 0.01888899)
(0.185286 0.007977982 0.04007761)
(0.1734741 0.002409185 0.05955713)
(0.1592393 -0.003329942 0.07669177)
(0.1421202 -0.008787193 0.09085879)
(0.1212572 -0.0133789 0.1009421)
(0.09537172 -0.0162587 0.1047612)
(0.06388493 -0.01642445 0.09942361)
(0.03052121 -0.01339588 0.08436605)
(-0.01091527 -0.007627805 0.04913275)
(-0.05823914 -0.005606554 0.03417318)
(-0.1033618 -0.002964964 0.02238373)
(-0.1351021 -0.001140098 -0.01356089)
(-0.009533902 -0.0001566596 -0.06535586)
(-0.009922286 -0.0002179297 -0.07057569)
(0.004083816 0.00164225 -0.07868398)
(0.01573547 0.005649061 -0.1145933)
(0.02925892 0.008061412 -0.1315615)
(0.05330494 0.009693344 -0.1440412)
(0.08084759 0.01113116 -0.1497246)
(0.1083214 0.01256157 -0.1490673)
(0.1333042 0.01395207 -0.1433798)
(0.1544486 0.01522451 -0.1337466)
(0.1714407 0.01630785 -0.121058)
(0.1846792 0.01715507 -0.1060137)
(0.1948216 0.01771744 -0.08909055)
(0.2023548 0.01788158 -0.07056427)
(0.2072858 0.01738447 -0.05057306)
(0.2091262 0.01582028 -0.02925231)
(0.2072799 0.01293461 -0.006976293)
(0.2012935 0.008749671 0.0157394)
(0.1922743 0.003914931 0.03674738)
(0.1810199 -0.001264109 0.05600958)
(0.1675213 -0.006512957 0.07300964)
(0.1514003 -0.01148861 0.08728364)
(0.1317782 -0.01564037 0.09804321)
(0.1071021 -0.01810839 0.1035298)
(0.07598126 -0.01765669 0.1009488)
(0.04121004 -0.01368605 0.08822374)
(-0.001955703 -0.008922768 0.05559255)
(-0.0519701 -0.006957029 0.03639159)
(-0.09972338 -0.003288151 0.02415418)
(-0.1339619 -0.001279452 -0.01273605)
(-0.009296104 -0.0002227027 -0.06614934)
(-0.009184473 -0.0005801005 -0.07137339)
(0.004657562 0.001526774 -0.08111187)
(0.01662162 0.005264882 -0.11612)
(0.03091103 0.006864361 -0.1327062)
(0.05565145 0.007906287 -0.1446433)
(0.08363296 0.008978942 -0.1499522)
(0.1113281 0.01014258 -0.1491189)
(0.1364131 0.01130235 -0.1434459)
(0.1576318 0.01236202 -0.1339824)
(0.1747422 0.01325477 -0.1215947)
(0.1881974 0.01394388 -0.1069507)
(0.1986949 0.01439055 -0.09048179)
(0.2067283 0.01448647 -0.07240308)
(0.2122046 0.01395794 -0.05277488)
(0.214408 0.01237023 -0.03164091)
(0.2127048 0.009482359 -0.009490436)
(0.2068313 0.005419254 0.01320018)
(0.1981292 0.0009375011 0.03394762)
(0.1874412 -0.003748521 0.05286201)
(0.1747601 -0.008477564 0.0695574)
(0.159728 -0.01299221 0.08374853)
(0.1415495 -0.01684617 0.09493979)
(0.1186408 -0.01932065 0.1019788)
(0.08869447 -0.01925715 0.1025599)
(0.05078981 -0.01601476 0.09428002)
(0.008868632 -0.01258795 0.07515897)
(-0.04140906 -0.007476274 0.03916883)
(-0.09434621 -0.00362136 0.02668642)
(-0.1317388 -0.001519312 -0.01147618)
(-0.009095762 -9.997142e-05 -0.06707418)
(-0.007911056 -0.0001571166 -0.07243902)
(0.004595317 0.001183632 -0.0876545)
(0.01619257 0.003763374 -0.1183848)
(0.03193253 0.005148569 -0.13413)
(0.05734828 0.006089718 -0.1453806)
(0.08565535 0.007018574 -0.1503143)
(0.1135067 0.008010762 -0.1493526)
(0.138694 0.008989869 -0.1437063)
(0.1600193 0.009870796 -0.1343837)
(0.1772801 0.01059572 -0.1222275)
(0.1909672 0.01113609 -0.1078807)
(0.2018165 0.0114614 -0.09173728)
(0.2103373 0.01147725 -0.07396099)
(0.2163385 0.01093482 -0.05454162)
(0.2188438 0.009430409 -0.03344041)
(0.2171669 0.006751026 -0.01127966)
(0.2113513 0.003076003 0.01130909)
(0.2029737 -0.0008708287 0.03171725)
(0.1928892 -0.004964646 0.05016848)
(0.1810653 -0.009111658 0.06643702)
(0.167153 -0.01312412 0.08036968)
(0.1504987 -0.01666257 0.09166216)
(0.1297311 -0.01920449 0.0995259)
(0.1024076 -0.01994299 0.1020628)
(0.06617195 -0.0180042 0.09617383)
(0.02335681 -0.01384097 0.07960168)
(-0.03039215 -0.007361767 0.04194014)
(-0.08674819 -0.004377097 0.02900453)
(-0.1279986 -0.002075288 -0.009813794)
(-0.008993805 5.080209e-05 -0.06712608)
(-0.008120192 0.0003762537 -0.07247053)
(0.005416017 0.0008526563 -0.08464662)
(0.0175616 0.00217078 -0.1180986)
(0.03289118 0.003465048 -0.1343015)
(0.0584617 0.004420335 -0.1457122)
(0.08695624 0.00526924 -0.1506558)
(0.1149536 0.006118647 -0.1496843)
(0.1402639 0.006931423 -0.1440836)
(0.1617192 0.007641062 -0.1348636)
(0.1791391 0.008197555 -0.1228639)
(0.1930381 0.008575853 -0.1087142)
(0.2041817 0.008751692 -0.09278335)
(0.2130967 0.008656612 -0.07519881)
(0.2195221 0.008114851 -0.05589835)
(0.2222746 0.00683855 -0.03477924)
(0.2206324 0.004659673 -0.01257871)
(0.2149449 0.001702343 0.009807001)
(0.2069253 -0.001516803 0.02987049)
(0.1974572 -0.004919603 0.04784238)
(0.186465 -0.008412341 0.06367003)
(0.1736203 -0.011841 0.07728859)
(0.1584253 -0.01494167 0.08853087)
(0.1398301 -0.01732646 0.09689832)
(0.1156302 -0.01838328 0.1010048)
(0.0826703 -0.01712272 0.09795)
(0.04098377 -0.01296355 0.0840668)
(-0.0151747 -0.008348529 0.04817374)
(-0.07591243 -0.006310183 0.03208373)
(-0.1222322 -0.003145379 -0.007051878)
(-0.008934389 3.572458e-05 -0.067188)
(-0.007989815 0.0002154449 -0.07255421)
(0.005722579 0.0006081865 -0.08452064)
(0.01800245 0.001521822 -0.1181751)
(0.03342754 0.002356905 -0.1344942)
(0.05913007 0.003064795 -0.1459956)
(0.087741 0.003743504 -0.1509732)
(0.1158446 0.00442215 -0.1500279)
(0.1412659 0.005058334 -0.1444677)
(0.1628425 0.005590313 -0.1353128)
(0.1803941 0.005971117 -0.1234068)
(0.1944409 0.006173128 -0.1093793)
(0.2057653 0.006175643 -0.09359171)
(0.2149124 0.005945213 -0.07615625)
(0.2216065 0.00541671 -0.05698708)
(0.2245807 0.004490689 -0.03594807)
(0.2231002 0.00306573 -0.01382339)
(0.2176873 0.001102033 0.008323542)
(0.210063 -0.001210894 0.0281341)
(0.20115 -0.003808036 0.04574786)
(0.1908779 -0.006545975 0.06123903)
(0.178957 -0.009274113 0.07459309)
(0.1650357 -0.01179402 0.08574957)
(0.1484155 -0.01384767 0.09447141)
(0.1274198 -0.01506419 0.1000653)
(0.09861581 -0.01479362 0.1006962)
(0.05777993 -0.01259446 0.09278658)
(0.005202789 -0.01081218 0.07154673)
(-0.05903645 -0.007151642 0.0366227)
(-0.1132534 -0.004323886 -0.002387489)
(-0.008906635 2.626888e-05 -0.06721341)
(-0.007896969 0.0001275585 -0.07258523)
(0.005905523 0.0003732417 -0.08454569)
(0.01823675 0.0009338157 -0.1182414)
(0.03373027 0.001440495 -0.134624)
(0.05949366 0.001915474 -0.1461901)
(0.08816247 0.002395396 -0.1512108)
(0.1163353 0.002877019 -0.1502903)
(0.1418401 0.003318449 -0.1447491)
(0.1635033 0.00366641 -0.135617)
(0.1811295 0.003873782 -0.1237489)
(0.19523 0.003905905 -0.1097865)
(0.2065897 0.0037417 -0.09410236)
(0.2157738 0.003382377 -0.07681891)
(0.2225548 0.002881486 -0.05785993)
(0.2257293 0.002349496 -0.03709024)
(0.2245668 0.001770267 -0.01523107)
(0.2195855 0.0009230256 0.006652323)
(0.2123571 -0.000348996 0.02637671)
(0.2038678 -0.002005602 0.04384285)
(0.1941195 -0.003843205 0.05918565)
(0.1828761 -0.005702905 0.07239806)
(0.1698987 -0.007442178 0.08347387)
(0.1547808 -0.008919579 0.09231383)
(0.1365057 -0.009983795 0.09858241)
(0.112547 -0.01045105 0.1011828)
(0.0780742 -0.01014222 0.09700218)
(0.02916207 -0.009121959 0.08035401)
(-0.03885242 -0.007140166 0.04259823)
(-0.09840456 -0.006050696 0.003017787)
(-0.008898018 1.283754e-05 -0.06722281)
(-0.007860765 5.732517e-05 -0.07259336)
(0.005982773 0.0001648726 -0.08455728)
(0.01833936 0.0004140604 -0.1182659)
(0.03385888 0.0006523335 -0.1346834)
(0.05964542 0.0008970984 -0.1462806)
(0.08834281 0.001157652 -0.1513155)
(0.1165561 0.001422101 -0.1503905)
(0.1421078 0.001659476 -0.1448299)
(0.1638078 0.001827274 -0.1356704)
(0.1814394 0.001879454 -0.1237792)
(0.195494 0.001773915 -0.1098168)
(0.2067436 0.001486021 -0.09418302)
(0.2157666 0.001041936 -0.07703403)
(0.2224328 0.0005888194 -0.05833855)
(0.2257394 0.0004066581 -0.03800173)
(0.2249943 0.0005743642 -0.01658981)
(0.2205488 0.000771737 0.00498977)
(0.2136804 0.0005950557 0.02475219)
(0.2054423 1.43834e-05 0.04226913)
(0.1959628 -0.0007559415 0.05766442)
(0.1850717 -0.001562594 0.07090311)
(0.1725984 -0.002313788 0.08200205)
(0.1582971 -0.002953377 0.09093706)
(0.1415924 -0.00344598 0.09757108)
(0.1209627 -0.00380028 0.101337)
(0.09282117 -0.004143949 0.1005651)
(0.05140657 -0.00448278 0.0906181)
(-0.01378648 -0.004723975 0.05651443)
(-0.08018446 -0.003819933 0.008310109)
(-0.008900004 -1.583013e-06 -0.06722448)
(-0.007865076 -1.104659e-05 -0.07259345)
(0.005976578 -3.252726e-05 -0.08455523)
(0.01833265 -7.78435e-05 -0.1182592)
(0.03385552 -9.450317e-05 -0.1346675)
(0.05965093 -8.194294e-05 -0.1462468)
(0.08836233 -5.04967e-05 -0.1512511)
(0.116591 -1.08901e-05 -0.1502784)
(0.1421505 2.104163e-05 -0.1446504)
(0.1638357 1.765816e-05 -0.135405)
(0.1814088 -6.195373e-05 -0.1234174)
(0.1953346 -0.0002639352 -0.1093672)
(0.2063574 -0.0006162468 -0.09368856)
(0.2150529 -0.001078501 -0.07658821)
(0.2214059 -0.001453306 -0.05810675)
(0.2247008 -0.00137786 -0.03822273)
(0.2243485 -0.0006802553 -0.01734039)
(0.2204409 0.0003527373 0.003883822)
(0.2138682 0.001226327 0.02367599)
(0.2057018 0.001809292 0.04133352)
(0.1962099 0.002246656 0.0569007)
(0.1852937 0.002648366 0.07029099)
(0.1728093 0.003044477 0.0815099)
(0.1585226 0.003411955 0.09053888)
(0.1418774 0.003708229 0.09725435)
(0.1214055 0.003908851 0.1011154)
(0.09361927 0.004082038 0.100525)
(0.05275986 0.004227868 0.09094615)
(-0.01216483 0.004294659 0.05703739)
(-0.07922131 0.003460829 0.008619185)
(-0.00891241 -1.527304e-05 -0.06721885)
(-0.007909488 -8.20955e-05 -0.07258621)
(0.005887497 -0.0002429639 -0.08454037)
(0.01821771 -0.0006028429 -0.1182227)
(0.0337222 -0.0008922611 -0.1345778)
(0.05951365 -0.001115941 -0.1460907)
(0.08822653 -0.001310398 -0.1510209)
(0.1164483 -0.001492938 -0.1499592)
(0.141981 -0.001663559 -0.1442182)
(0.1636083 -0.001831581 -0.1348304)
(0.181075 -0.002027337 -0.122673)
(0.1948182 -0.002294734 -0.1084406)
(0.2055477 -0.002661156 -0.09260105)
(0.213827 -0.003079377 -0.07541535)
(0.2197445 -0.003341929 -0.0569993)
(0.2228632 -0.003077458 -0.03741175)
(0.2227324 -0.00204872 -0.01697425)
(0.219204 -0.0004181745 0.003890829)
(0.2128211 0.001371675 0.02359373)
(0.2045733 0.003096978 0.04136551)
(0.1948201 0.004761198 0.05712421)
(0.1835232 0.006382759 0.07072082)
(0.1705234 0.0079085 0.08211345)
(0.1554535 0.009226491 0.09121644)
(0.1373544 0.01018915 0.09773693)
(0.1138113 0.01061003 0.1006697)
(0.08005565 0.01029277 0.09706913)
(0.03176424 0.009233877 0.08108443)
(-0.03660253 0.007242616 0.0435295)
(-0.09676573 0.006017723 0.003476078)
(-0.0089432 -2.455338e-05 -0.06719861)
(-0.008008918 -0.0001692982 -0.07255855)
(0.005695047 -0.0004813697 -0.08451505)
(0.01797435 -0.001200238 -0.1181483)
(0.0334194 -0.001826701 -0.1344228)
(0.05917125 -0.00229596 -0.1458388)
(0.08785964 -0.002703695 -0.1506708)
(0.1160519 -0.003095854 -0.1494987)
(0.1415329 -0.003464353 -0.1436159)
(0.1630753 -0.003797929 -0.1340442)
(0.1804095 -0.004111132 -0.1216578)
(0.1939479 -0.004438488 -0.1071611)
(0.2043684 -0.004800808 -0.09105151)
(0.2122238 -0.005145505 -0.07364034)
(0.217684 -0.005273662 -0.05511341)
(0.2205156 -0.004842237 -0.03560531)
(0.2203819 -0.003579791 -0.01542706)
(0.2169579 -0.001508043 0.005176471)
(0.2105839 0.001032199 0.02469233)
(0.2021099 0.003779454 0.0425137)
(0.191905 0.006578645 0.05842801)
(0.1799539 0.009321905 0.07222585)
(0.1660305 0.01184573 0.08378463)
(0.1495063 0.01391402 0.09287847)
(0.1287857 0.01517733 0.09887894)
(0.1005045 0.01500657 0.1000616)
(0.0603095 0.01292721 0.09291798)
(0.008089804 0.01107387 0.07230766)
(-0.05661298 0.007260226 0.03712946)
(-0.1114215 0.004438602 -0.001809146)
(-0.00900336 -3.950347e-05 -0.06714174)
(-0.008140692 -0.0003293495 -0.07248157)
(0.005382518 -0.0007242407 -0.08464608)
(0.01753085 -0.0018584 -0.1180677)
(0.03289089 -0.002960657 -0.1342113)
(0.05853266 -0.003698136 -0.1455098)
(0.08713934 -0.004301045 -0.1502623)
(0.1152692 -0.004889543 -0.1489932)
(0.1406829 -0.005452885 -0.1429675)
(0.1621324 -0.005961527 -0.1331925)
(0.1793311 -0.006408679 -0.1205396)
(0.1926682 -0.006812013 -0.1057213)
(0.2027945 -0.007179515 -0.08926065)
(0.2102551 -0.007452587 -0.07151331)
(0.2152764 -0.007445651 -0.05272595)
(0.2177559 -0.006848332 -0.03310171)
(0.2174288 -0.005376277 -0.01298088)
(0.2138396 -0.002930211 0.007522614)
(0.2072722 0.0002233344 0.02685186)
(0.1984329 0.003821051 0.04469354)
(0.1876323 0.007579052 0.06072345)
(0.1748323 0.01125635 0.07467218)
(0.1596878 0.01456273 0.08629017)
(0.1412406 0.01711443 0.09508736)
(0.117349 0.01832424 0.0997676)
(0.08480207 0.01724173 0.09757172)
(0.04337094 0.01326538 0.0846669)
(-0.01267205 0.008726805 0.04957461)
(-0.07368426 0.0064701 0.03258348)
(-0.1206776 0.003251137 -0.006446446)
(-0.009103829 0.0001122391 -0.06709269)
(-0.007927797 0.0002032491 -0.07244938)
(0.004574723 -0.001056373 -0.08765307)
(0.01617683 -0.003467938 -0.118351)
(0.03195579 -0.004679955 -0.1340243)
(0.05746239 -0.005429414 -0.1451419)
(0.08591297 -0.006146813 -0.1498533)
(0.1139387 -0.006918208 -0.1485467)
(0.1392773 -0.007686957 -0.1424064)
(0.1606443 -0.008392681 -0.1324336)
(0.1777246 -0.009003584 -0.119499)
(0.1908822 -0.009514484 -0.1043268)
(0.2007446 -0.009914854 -0.08746421)
(0.2078503 -0.01013697 -0.06930571)
(0.2124611 -0.0100055 -0.05014952)
(0.2145509 -0.009237006 -0.03026044)
(0.2138875 -0.007556253 -0.01001402)
(0.209921 -0.00476281 0.01055332)
(0.2029862 -0.00109529 0.02979113)
(0.1936685 0.003180155 0.04768124)
(0.1821736 0.007696476 0.06381582)
(0.1684082 0.01209756 0.07785726)
(0.1518755 0.01596843 0.08940195)
(0.131304 0.01876859 0.09764365)
(0.104291 0.01969855 0.1007313)
(0.0683763 0.01790226 0.09555766)
(0.02569634 0.01385258 0.07964641)
(-0.02829739 0.007560371 0.04242904)
(-0.08499494 0.004605837 0.02933078)
(-0.126818 0.002214109 -0.009444843)
(-0.009299015 0.000236451 -0.06615717)
(-0.009188696 0.000625366 -0.07137419)
(0.00465869 -0.001415636 -0.08109669)
(0.01663599 -0.004990235 -0.1160604)
(0.03097629 -0.006434331 -0.1325706)
(0.0558228 -0.00731531 -0.1443694)
(0.08397011 -0.008218793 -0.1494452)
(0.1118713 -0.009214207 -0.1482499)
(0.1371492 -0.01022146 -0.1420583)
(0.1584609 -0.01115965 -0.1319095)
(0.1754544 -0.01197371 -0.1186941)
(0.1884646 -0.01263293 -0.1031535)
(0.1980978 -0.01310412 -0.08585988)
(0.2048861 -0.01330691 -0.0672417)
(0.2091121 -0.01307137 -0.04763888)
(0.2107893 -0.01213405 -0.02737283)
(0.2096726 -0.01023523 -0.006798028)
(0.2052073 -0.007130171 0.0138745)
(0.1977812 -0.003024605 0.03320653)
(0.1878976 0.001781098 0.05122136)
(0.1756497 0.006873328 0.06747755)
(0.1608595 0.0118059 0.08155415)
(0.142866 0.01603621 0.09285437)
(0.1201697 0.01881914 0.1001875)
(0.09046908 0.01900205 0.1012414)
(0.0527353 0.01594167 0.09353339)
(0.01078465 0.01263827 0.07492311)
(-0.03987238 0.007619531 0.03926562)
(-0.09316915 0.003742269 0.0267932)
(-0.130997 0.001614039 -0.01130531)
(-0.00952705 0.0001712742 -0.06534808)
(-0.009903306 0.0002640805 -0.07056033)
(0.004116698 -0.001533054 -0.07865173)
(0.01579131 -0.005384989 -0.1145078)
(0.02937496 -0.007663848 -0.1313978)
(0.05353461 -0.009168756 -0.14374)
(0.08125335 -0.0104838 -0.1491957)
(0.1089502 -0.01180434 -0.1481885)
(0.1341536 -0.01310935 -0.1420028)
(0.1554343 -0.01432948 -0.1317136)
(0.1723763 -0.01539444 -0.1182318)
(0.1852733 -0.01624886 -0.1023215)
(0.1947085 -0.01683495 -0.08458173)
(0.201208 -0.0170576 -0.06547156)
(0.2050668 -0.01674904 -0.04536547)
(0.206316 -0.01566127 -0.02463739)
(0.2046663 -0.01354512 -0.003594864)
(0.1996252 -0.01016279 0.01729225)
(0.1916359 -0.00569755 0.03686249)
(0.1811237 -0.0004750393 0.05508456)
(0.1681044 0.005061624 0.07146817)
(0.1522828 0.01039845 0.0854804)
(0.1328796 0.01489618 0.09624178)
(0.1083977 0.01766472 0.1019483)
(0.07742607 0.01746082 0.09976286)
(0.04266666 0.01366686 0.08751987)
(-0.0006261917 0.008997389 0.05539799)
(-0.05096788 0.007032399 0.03632221)
(-0.09902362 0.003351378 0.02413894)
(-0.1335762 0.001334697 -0.01269147)
(-0.009777219 0.0001264473 -0.06461422)
(-0.01060633 2.526021e-05 -0.06982753)
(0.003163032 -0.00164706 -0.0771762)
(0.01436768 -0.005766953 -0.113339)
(0.02719267 -0.008858203 -0.1304921)
(0.05053492 -0.01109797 -0.1432715)
(0.07767237 -0.01296377 -0.1491264)
(0.1050678 -0.01471454 -0.1483682)
(0.1301671 -0.01639708 -0.1422561)
(0.1514296 -0.01796407 -0.1318774)
(0.1683482 -0.0193388 -0.1181599)
(0.1811588 -0.02044349 -0.1018918)
(0.1904173 -0.02119568 -0.08370038)
(0.1966438 -0.02148497 -0.06407487)
(0.2001421 -0.0211444 -0.04342065)
(0.2009494 -0.01993834 -0.02216192)
(0.1987157 -0.01762287 -0.0005486249)
(0.1930566 -0.01400463 0.02066299)
(0.184465 -0.009247156 0.04057551)
(0.1732879 -0.003684849 0.05906085)
(0.1595023 0.002237136 0.07556274)
(0.1426936 0.007956223 0.089418)
(0.122055 0.01281688 0.09944859)
(0.09633787 0.01594056 0.103428)
(0.06494057 0.01630408 0.09840875)
(0.03152902 0.01340104 0.08373634)
(-0.01005981 0.007682585 0.0489232)
(-0.05760381 0.005658438 0.0340401)
(-0.1029299 0.003010296 0.02232035)
(-0.1348751 0.00116661 -0.01356878)
(-0.009979684 0.0001321909 -0.0638963)
(-0.01125405 -4.998792e-05 -0.06914867)
(0.001992274 -0.001616985 -0.07613892)
(0.01247395 -0.006083447 -0.1124855)
(0.02436161 -0.01007769 -0.1298133)
(0.04673072 -0.01316143 -0.1429118)
(0.07315282 -0.01569123 -0.1491403)
(0.1001513 -0.01797566 -0.1486899)
(0.1251001 -0.02012232 -0.1427416)
(0.1463367 -0.0221146 -0.1323572)
(0.1632421 -0.0238732 -0.1184653)
(0.1759781 -0.02529777 -0.1018731)
(0.1850662 -0.02627999 -0.08323825)
(0.1910203 -0.02669382 -0.0630829)
(0.1941522 -0.02637275 -0.04184512)
(0.1945018 -0.02509167 -0.02000208)
(0.1916516 -0.02260772 0.002251944)
(0.1853555 -0.01879238 0.02386377)
(0.176146 -0.01379018 0.04416854)
(0.1642915 -0.007928233 0.06292398)
(0.1496941 -0.00164372 0.0795207)
(0.1319346 0.004511359 0.09312988)
(0.1101925 0.00988662 0.102346)
(0.08363837 0.01366833 0.1047168)
(0.05248363 0.01483337 0.09768648)
(0.02089257 0.01300329 0.08162761)
(-0.01744941 0.007261745 0.04630746)
(-0.06181461 0.005137429 0.03273723)
(-0.1048527 0.003157517 0.02142953)
(-0.1350089 0.001179222 -0.01396831)
(-0.01002443 0.000252783 -0.06304384)
(-0.01168591 0.0001805399 -0.0683603)
(0.000817189 -0.001212832 -0.07530216)
(0.01023504 -0.006265863 -0.1116819)
(0.02087898 -0.01153691 -0.1291156)
(0.04208289 -0.01553247 -0.1423491)
(0.06767499 -0.01873886 -0.1489272)
(0.09418607 -0.0216031 -0.1488933)
(0.1189183 -0.02429042 -0.1432671)
(0.1400922 -0.02680146 -0.1330288)
(0.1569675 -0.02904427 -0.1190784)
(0.1696186 -0.03088598 -0.1022344)
(0.1785243 -0.03218601 -0.08318822)
(0.1841907 -0.03280028 -0.06250336)
(0.1869382 -0.03256202 -0.04066011)
(0.18681 -0.03125487 -0.01819894)
(0.1833214 -0.02863193 0.004725991)
(0.1763811 -0.0246399 0.02675719)
(0.1665438 -0.01941216 0.04742487)
(0.153984 -0.01326288 0.06636993)
(0.1385115 -0.006609307 0.08291906)
(0.1197342 3.716793e-05 0.09610676)
(0.09703441 0.006047905 0.1043227)
(0.07012848 0.01053104 0.1050828)
(0.04026132 0.01241933 0.09680283)
(0.01196 0.01215989 0.07983735)
(-0.02241783 0.008137138 0.04545033)
(-0.06327138 0.005816176 0.03215386)
(-0.1041037 0.004017819 0.02115687)
(-0.1333013 0.001495292 -0.01387448)
(-0.009753377 0.0005468985 -0.06158053)
(-0.01165212 0.0008842063 -0.06686279)
(-0.0001805494 2.19572e-05 -0.07377751)
(0.007946594 -0.006158095 -0.1093335)
(0.01711312 -0.01348035 -0.1271787)
(0.03676491 -0.01838156 -0.1406001)
(0.0613488 -0.0221184 -0.147756)
(0.08726543 -0.02551988 -0.1484688)
(0.1116863 -0.02881425 -0.1434997)
(0.1327208 -0.03197566 -0.1336871)
(0.1495121 -0.0348573 -0.1198826)
(0.16204 -0.0372659 -0.1029161)
(0.1707319 -0.03901367 -0.0835261)
(0.1760811 -0.03993305 -0.0623353)
(0.1784165 -0.03985509 -0.0398846)
(0.1777863 -0.0385689 -0.01679681)
(0.1736433 -0.03581554 0.006781979)
(0.1660551 -0.03162446 0.02918091)
(0.1555747 -0.02613872 0.05007398)
(0.1422568 -0.01966568 0.06898121)
(0.1258088 -0.0126002 0.08514981)
(0.1058827 -0.005407332 0.09749918)
(0.08244981 0.001413565 0.1042304)
(0.05626443 0.007036874 0.1030299)
(0.03127773 0.010214 0.09269794)
(0.00603423 0.01090019 0.0680203)
(-0.02606119 0.009688608 0.04497697)
(-0.06112089 0.007396575 0.0318236)
(-0.09929084 0.005632197 0.02135745)
(-0.1283239 0.00209375 -0.01306374)
(-0.008938119 0.0009957786 -0.05879637)
(-0.01096988 0.001842312 -0.06361919)
(-0.002160492 0.001581946 -0.07024952)
(0.006945602 -0.004784425 -0.09898012)
(0.0151519 -0.01451022 -0.1210937)
(0.03141307 -0.02091368 -0.1356855)
(0.05451092 -0.02534229 -0.144359)
(0.07965848 -0.02934009 -0.1466642)
(0.1036298 -0.03340233 -0.1430031)
(0.1243979 -0.03745679 -0.1340847)
(0.1410065 -0.04124181 -0.1207374)
(0.1533433 -0.04445729 -0.1038396)
(0.1617743 -0.04684768 -0.0842123)
(0.1667702 -0.04821721 -0.0625668)
(0.1686636 -0.04839354 -0.03953093)
(0.1675082 -0.04716576 -0.01583449)
(0.1627017 -0.04424818 0.008336842)
(0.1544614 -0.03976056 0.03098423)
(0.1433129 -0.03388973 0.05184826)
(0.1291679 -0.0269535 0.0703011)
(0.1116402 -0.01934064 0.08547647)
(0.09056641 -0.01146563 0.09622063)
(0.0667373 -0.00361232 0.100892)
(0.04256925 0.004085938 0.09756507)
(0.02310066 0.009957852 0.08616846)
(0.002489432 0.01115014 0.05813702)
(-0.02540878 0.01114876 0.04372302)
(-0.05424295 0.009450818 0.03155225)
(-0.0885083 0.007807173 0.02201275)
(-0.1179945 0.002752439 -0.01111064)
(-0.007349688 0.00158544 -0.05371959)