/*--------------------------------*- C++ -*----------------------------------*\
| =========                 |                                                 |
| \\      /  F ield         | OpenFOAM: The Open Source CFD Toolbox           |
|  \\    /   O peration     | Version:  2506                                  |
|   \\  /    A nd           | Website:  www.openfoam.com                      |
|    \\/     M anipulation  |                                                 |
\*---------------------------------------------------------------------------*/
FoamFile
{
    version     2.0;
    format      ascii;
    arch        "LSB;label=32;scalar=64";
    class       volScalarField;
    location    "120/airRegion";
    object      epsilon;
}
// * * * * * * * * * * * * * * * * * * * * * * * * * * * * * * * * * * * * * //

dimensions      [0 2 -3 0 0 0 0];

internalField   nonuniform List<scalar> 
260661
(
0.02641732
0.02366516
0.02223779
0.01850038
0.01879318
0.01874672
0.01806524
0.01779443
0.01775299
0.01776221
0.01777448
0.0177839
0.017791
0.01779656
0.01780111
0.01780498
0.01780837
0.01781143
0.01781424
0.01781687
0.01781937
0.01782177
0.01782411
0.01782641
0.01782871
0.01783103
0.01783343
0.01783593
0.01783861
0.01784152
0.01784475
0.0178484
0.01785257
0.0178574
0.01786308
0.01786981
0.01787787
0.01788761
0.01789952
0.01791423
0.01793266
0.01795619
0.01798712
0.01802977
0.01809404
0.01820534
0.01846333
0.0195241
0.02613473
0.07138301
0.02340265
0.01877012
0.01812938
0.01781853
0.01799522
0.01801203
0.01780421
0.01773487
0.01774125
0.01776095
0.01777757
0.01779017
0.0177999
0.01780771
0.01781421
0.01781981
0.01782478
0.01782929
0.01783346
0.01783738
0.01784112
0.01784472
0.01784822
0.01785166
0.01785509
0.01785855
0.0178621
0.01786581
0.01786976
0.01787405
0.01787881
0.01788416
0.01789028
0.01789737
0.01790567
0.0179155
0.01792724
0.0179414
0.01795862
0.01797981
0.01800621
0.01803966
0.01808311
0.01814186
0.01822707
0.01836586
0.01863053
0.01925058
0.02318477
0.07057773
0.01884323
0.01792184
0.01774013
0.01773714
0.01782205
0.0178799
0.01789613
0.01792553
0.0179581
0.01798548
0.01800662
0.01802298
0.01803599
0.01804669
0.01805578
0.01806373
0.01807086
0.01807738
0.01808346
0.0180892
0.01809467
0.01809995
0.01810509
0.01811013
0.01811514
0.01812018
0.01812534
0.01813071
0.01813641
0.0181426
0.01814944
0.01815713
0.01816591
0.01817607
0.01818795
0.01820199
0.01821872
0.01823884
0.01826325
0.01829315
0.01833024
0.01837696
0.0184372
0.0185177
0.01863191
0.01880972
0.01912152
0.01973141
0.02336286
0.06952157
0.01978147
0.01813529
0.01775174
0.0177865
0.01788013
0.01796156
0.01802607
0.01807895
0.01812058
0.01815293
0.01817815
0.0181982
0.01821457
0.01822833
0.01824021
0.01825074
0.01826027
0.01826907
0.0182773
0.01828511
0.01829257
0.01829978
0.01830678
0.01831364
0.01832044
0.01832726
0.01833421
0.01834142
0.01834906
0.01835733
0.01836646
0.01837671
0.01838841
0.01840193
0.01841773
0.01843638
0.01845856
0.01848518
0.01851739
0.01855672
0.01860531
0.01866624
0.01874428
0.01884762
0.01899203
0.01921108
0.0195799
0.02026501
0.02398855
0.06900408
0.02001444
0.01821609
0.0178078
0.0178711
0.01798513
0.01808039
0.01815597
0.01821525
0.01826137
0.01829754
0.01832634
0.01834978
0.01836932
0.01838604
0.01840069
0.01841382
0.01842583
0.01843698
0.01844748
0.01845747
0.01846705
0.01847629
0.01848527
0.01849403
0.01850269
0.01851134
0.01852013
0.01852921
0.01853879
0.01854913
0.01856052
0.01857332
0.0185879
0.01860476
0.01862444
0.01864764
0.01867521
0.01870822
0.01874806
0.01879657
0.01885626
0.01893073
0.01902552
0.01914987
0.0193213
0.01957594
0.01999193
0.02073177
0.02449656
0.06867001
0.0196549
0.01814863
0.01786136
0.01795306
0.0180791
0.01818204
0.01826254
0.01832544
0.01837485
0.01841423
0.01844619
0.01847268
0.01849516
0.01851467
0.018532
0.0185477
0.01856218
0.01857574
0.01858856
0.01860078
0.01861254
0.01862388
0.0186349
0.01864562
0.01865615
0.01866662
0.01867718
0.01868805
0.0186995
0.01871181
0.01872534
0.01874053
0.01875781
0.01877781
0.01880115
0.01882863
0.01886125
0.01890023
0.01894717
0.01900414
0.01907396
0.01916063
0.01927019
0.01941264
0.01960653
0.01988942
0.02034066
0.02111661
0.02489505
0.06843875
0.0181843
0.01780106
0.01788172
0.01802161
0.01815477
0.01826201
0.01834587
0.01841167
0.01846392
0.01850614
0.01854092
0.01857019
0.01859538
0.01861754
0.01863745
0.01865567
0.01867262
0.01868858
0.01870377
0.01871832
0.01873234
0.01874585
0.01875893
0.01877163
0.01878403
0.01879627
0.01880853
0.01882107
0.01883421
0.01884828
0.01886374
0.01888108
0.01890082
0.01892366
0.01895031
0.01898168
0.01901889
0.01906328
0.0191166
0.01918111
0.01925985
0.01935709
0.01947921
0.01963664
0.01984849
0.02015299
0.02062977
0.02142934
0.0252102
0.06827053
0.0177844
0.01772463
0.0179209
0.01807705
0.01821383
0.01832419
0.01841085
0.01847928
0.01853413
0.01857894
0.01861631
0.01864815
0.01867589
0.01870058
0.01872299
0.0187437
0.01876311
0.01878153
0.01879916
0.01881611
0.01883244
0.01884819
0.0188634
0.01887808
0.01889232
0.01890627
0.01892012
0.01893416
0.01894878
0.01896439
0.01898149
0.01900068
0.01902256
0.01904787
0.01907743
0.01911225
0.0191535
0.01920266
0.01926157
0.01933264
0.01941904
0.01952522
0.01965776
0.01982729
0.02005319
0.02037399
0.02086921
0.0216844
0.02546257
0.06814285
0.01774832
0.01773879
0.01795644
0.01811867
0.01825912
0.01837252
0.01846189
0.01853286
0.01859017
0.01863741
0.01867719
0.01871146
0.01874162
0.01876875
0.01879362
0.01881681
0.01883872
0.01885966
0.0188798
0.01889923
0.01891798
0.01893604
0.01895342
0.01897011
0.01898616
0.01900172
0.01901702
0.0190324
0.01904824
0.01906511
0.01908355
0.01910424
0.01912787
0.01915526
0.01918731
0.01922506
0.0192698
0.01932306
0.01938677
0.01946342
0.01955628
0.01966989
0.01981091
0.01999008
0.02022687
0.02055991
0.02106857
0.02189435
0.02566775
0.06804274
0.01776167
0.01775994
0.01798347
0.01815003
0.018294
0.0184104
0.01850244
0.01857586
0.01863553
0.01868508
0.01872716
0.01876373
0.01879624
0.01882576
0.01885306
0.01887873
0.0189032
0.01892673
0.01894947
0.0189715
0.01899281
0.01901333
0.01903298
0.01905173
0.01906958
0.01908665
0.01910319
0.01911961
0.01913638
0.01915421
0.01917362
0.01919544
0.01922041
0.01924945
0.01928352
0.01932371
0.01937136
0.01942807
0.01949582
0.01957714
0.01967536
0.01979504
0.0199429
0.02012968
0.02037489
0.02071716
0.02123576
0.02206892
0.02583694
0.06796231
0.01777356
0.01777567
0.01800348
0.01817387
0.01832116
0.01844044
0.01853504
0.01861083
0.01867276
0.0187245
0.01876878
0.01880758
0.01884237
0.01887421
0.01890394
0.01893215
0.01895923
0.01898544
0.01901092
0.01903573
0.01905973
0.01908282
0.01910487
0.01912572
0.01914533
0.0191638
0.01918142
0.01919866
0.01921605
0.01923439
0.01925437
0.01927693
0.01930283
0.01933305
0.01936866
0.01941081
0.01946083
0.01952036
0.01959146
0.01967662
0.01977921
0.01990382
0.02005714
0.02024991
0.02050161
0.0208509
0.02137697
0.02221543
0.0259781
0.06789648
0.01778199
0.01778716
0.01801851
0.01819228
0.0183426
0.01846456
0.01856158
0.01863962
0.01870368
0.01875753
0.01880392
0.01884487
0.01888188
0.01891604
0.0189482
0.01897896
0.01900872
0.01903775
0.01906614
0.01909386
0.01912076
0.01914665
0.01917122
0.01919422
0.01921558
0.01923535
0.01925382
0.01927153
0.01928917
0.01930766
0.0193278
0.01935061
0.019377
0.019408
0.01944469
0.01948829
0.01954017
0.01960196
0.01967574
0.01976401
0.01987015
0.0199987
0.02015635
0.02035381
0.02061054
0.02096521
0.02149701
0.02233937
0.02609702
0.06784183
0.01778821
0.01779578
0.01803005
0.01820674
0.01835975
0.01848416
0.01858343
0.01866356
0.01872965
0.0187855
0.0188339
0.01887692
0.01891608
0.01895253
0.01898715
0.0190205
0.01905302
0.01908496
0.01911639
0.01914725
0.01917726
0.01920611
0.01923337
0.01925867
0.01928176
0.01930267
0.01932173
0.0193396
0.01935712
0.01937528
0.01939514
0.01941777
0.01944423
0.01947557
0.0195129
0.0195575
0.01961078
0.01967433
0.0197502
0.01984098
0.01994993
0.02008163
0.0202427
0.02044384
0.02070448
0.02106332
0.02159956
0.02244486
0.02619794
0.06779599
0.01779295
0.01780241
0.0180391
0.01821827
0.01837365
0.01850026
0.01860157
0.01868365
0.01875162
0.01880935
0.01885967
0.01890468
0.01894594
0.01898464
0.01902166
0.01905763
0.01909297
0.01912793
0.01916256
0.01919671
0.01923004
0.01926207
0.0192922
0.01931988
0.01934471
0.01936664
0.01938604
0.0194037
0.01942066
0.01943811
0.01945726
0.0194793
0.01950539
0.01953665
0.01957425
0.01961947
0.01967369
0.01973856
0.01981607
0.01990879
0.02001997
0.02015414
0.02031792
0.02052194
0.02078563
0.02114773
0.02168747
0.02253503
0.02628401
0.06775725
0.01779663
0.01780762
0.0180463
0.0182276
0.01838503
0.01851359
0.01861674
0.01870059
0.0187703
0.01882978
0.0188819
0.01892879
0.01897207
0.01901295
0.01905234
0.0190909
0.01912909
0.01916712
0.01920506
0.01924265
0.01927947
0.01931487
0.01934804
0.01937822
0.01940478
0.01942758
0.01944708
0.01946419
0.01948018
0.01949648
0.01951451
0.01953557
0.01956095
0.01959178
0.01962934
0.01967484
0.01972965
0.01979547
0.01987421
0.01996842
0.02008135
0.02021748
0.02038337
0.02058965
0.02085575
0.02122042
0.02176295
0.02261228
0.02635761
0.06772438
0.01779953
0.01781177
0.01805212
0.01823521
0.01839441
0.01852467
0.01862946
0.0187149
0.0187862
0.01884728
0.01890106
0.01894972
0.0189949
0.01903785
0.01907952
0.0191206
0.01916159
0.01920269
0.01924395
0.01928506
0.01932549
0.01936439
0.0194007
0.01943343
0.0194617
0.01948525
0.01950457
0.01952081
0.01953551
0.01955036
0.01956694
0.01958671
0.01961111
0.01964128
0.01967854
0.01972403
0.01977919
0.01984564
0.0199253
0.02002065
0.02013496
0.0202726
0.02044016
0.02064823
0.02091622
0.02128293
0.0218277
0.02267844
0.02642057
0.06769645
0.01780185
0.01781511
0.01805685
0.01824144
0.01840216
0.01853388
0.01864011
0.01872696
0.01879967
0.0188622
0.01891749
0.01896775
0.01901468
0.01905955
0.01910334
0.0191468
0.01919047
0.01923454
0.01927903
0.01932361
0.01936761
0.01941002
0.01944951
0.0194848
0.01951473
0.01953888
0.01955784
0.01957298
0.01958617
0.01959934
0.01961429
0.01963263
0.01965586
0.01968522
0.01972196
0.01976731
0.01982265
0.01988951
0.01996985
0.02006608
0.02018144
0.0203203
0.02048917
0.02069865
0.02096814
0.02133649
0.02188309
0.02273494
0.02647429
0.06767276
0.01780371
0.01781781
0.01806069
0.01824654
0.01840853
0.01854151
0.01864897
0.01873705
0.01881099
0.01887478
0.01893139
0.01898308
0.01903155
0.01907814
0.01912386
0.01916948
0.01921559
0.01926238
0.01930986
0.01935769
0.01940507
0.01945079
0.01949333
0.01953105
0.01956252
0.01958716
0.01960566
0.01961965
0.01963123
0.01964268
0.01965598
0.0196729
0.01969496
0.01972349
0.01975969
0.01980484
0.01986022
0.01992738
0.02000824
0.02010517
0.02022136
0.02036117
0.0205311
0.0207417
0.0210124
0.02138206
0.02193015
0.02278291
0.02651985
0.06765277
0.0178052
0.01781998
0.01806379
0.01825068
0.01841373
0.01854776
0.01865625
0.01874536
0.01882034
0.0188852
0.01894293
0.01899582
0.01904561
0.01909364
0.019141
0.01918848
0.01923665
0.01928577
0.01933587
0.01938653
0.01943684
0.01948551
0.01953073
0.0195706
0.01960344
0.01962851
0.01964655
0.01965947
0.01966963
0.01967956
0.01969139
0.01970707
0.01972813
0.01975593
0.01979169
0.01983665
0.01989206
0.01995947
0.02004076
0.02013826
0.02025513
0.02039573
0.0205665
0.02077802
0.02104968
0.02142042
0.02196972
0.02282321
0.02655813
0.06763607
0.01780638
0.0178217
0.01806626
0.01825398
0.01841788
0.01855276
0.0186621
0.01875204
0.01882786
0.01889358
0.01895222
0.01900606
0.01905688
0.01910606
0.01915469
0.0192036
0.01925338
0.01930436
0.0193565
0.01940932
0.01946196
0.01951293
0.01956029
0.01960188
0.01963582
0.01966124
0.01967898
0.01969112
0.01970028
0.01970907
0.01971985
0.01973462
0.01975502
0.01978234
0.01981786
0.01986273
0.01991826
0.01998594
0.02006765
0.02016565
0.0202831
0.02042436
0.02059584
0.02080809
0.02108055
0.02145216
0.02200245
0.02285654
0.02658977
0.06762233
0.01780728
0.01782302
0.01806817
0.01825654
0.0184211
0.01855664
0.01866662
0.0187572
0.01883366
0.01890003
0.01895932
0.01901385
0.0190654
0.01911538
0.01916488
0.01921475
0.01926558
0.01931777
0.01937124
0.01942548
0.01947962
0.01953206
0.01958081
0.01962354
0.01965826
0.01968404
0.01970175
0.01971356
0.01972223
0.01973051
0.01974083
0.01975522
0.01977537
0.01980257
0.01983812
0.01988313
0.01993891
0.02000693
0.02008908
0.02018756
0.02030555
0.02044738
0.02061946
0.02083234
0.02110545
0.02147777
0.02202887
0.02288344
0.02661532
0.06761131
0.01780795
0.017824
0.01806957
0.01825842
0.01842346
0.01855948
0.01866992
0.01876094
0.01883783
0.01890461
0.01896431
0.01901924
0.0190712
0.01912159
0.01917152
0.01922184
0.01927315
0.01932582
0.0193798
0.01943458
0.01948929
0.01954231
0.01959163
0.01963488
0.01967003
0.01969616
0.01971414
0.01972616
0.01973499
0.01974345
0.01975398
0.01976861
0.01978903
0.01981656
0.01985247
0.01989788
0.01995409
0.02002257
0.0201052
0.02020419
0.0203227
0.02046505
0.02063766
0.02085107
0.02112473
0.02149762
0.02204936
0.02290432
0.02663516
0.06760281
0.0178084
0.01782466
0.01807051
0.01825967
0.01842502
0.01856133
0.01867204
0.01876332
0.01884043
0.0189074
0.01896725
0.01902231
0.01907435
0.01912477
0.01917467
0.01922489
0.01927604
0.01932849
0.01938217
0.01943658
0.01949089
0.01954351
0.01959252
0.01963562
0.01967084
0.01969732
0.01971588
0.01972868
0.01973842
0.01974783
0.01975926
0.01977479
0.01979604
0.01982434
0.01986098
0.01990706
0.01996392
0.020033
0.02011618
0.02021571
0.02033473
0.02047758
0.02065066
0.02086453
0.02113863
0.021512
0.02206423
0.0229195
0.02664962
0.06759666
0.01780865
0.01782501
0.01807101
0.01826032
0.01842582
0.01856226
0.01867307
0.0187644
0.01884153
0.01890846
0.01896823
0.01902312
0.01907492
0.01912499
0.01917442
0.01922405
0.01927445
0.01932596
0.01937857
0.01943179
0.0194848
0.01953615
0.01958404
0.01962635
0.01966131
0.01968812
0.01970757
0.01972166
0.01973293
0.01974394
0.01975697
0.01977398
0.01979658
0.0198261
0.01986379
0.01991083
0.01996852
0.02003834
0.02012214
0.02022226
0.0203418
0.02048511
0.02065862
0.02087288
0.02114736
0.02152109
0.02207369
0.0229292
0.02665889
0.06759275
0.0178087
0.01782508
0.0180711
0.01826041
0.01842589
0.01856229
0.01867302
0.01876423
0.01884118
0.01890788
0.01896732
0.01902179
0.01907305
0.01912243
0.01917101
0.01921959
0.01926875
0.01931875
0.01936961
0.01942094
0.0194719
0.01952125
0.01956735
0.01960837
0.01964276
0.01966987
0.01969041
0.01970618
0.01971947
0.01973259
0.01974772
0.01976668
0.01979105
0.01982214
0.01986117
0.01990937
0.01996805
0.0200387
0.02012322
0.02022394
0.02034401
0.02048776
0.02066165
0.02087625
0.02115102
0.021525
0.02207785
0.02293352
0.02666307
0.06759099
0.01780857
0.01782488
0.01807078
0.01825995
0.01842527
0.01856146
0.01867195
0.01876287
0.01883947
0.01890573
0.01896465
0.01901847
0.01906893
0.01911735
0.01916476
0.01921193
0.01925942
0.01930747
0.0193561
0.01940499
0.01945337
0.01950019
0.01954405
0.0195834
0.019617
0.01964434
0.01966608
0.01968374
0.01969932
0.01971491
0.01973244
0.01975368
0.01978007
0.01981292
0.01985349
0.01990297
0.01996273
0.02003428
0.02011953
0.02022085
0.02034144
0.02048559
0.02065981
0.02087467
0.02114964
0.02152378
0.02207673
0.02293247
0.02666213
0.06759137
0.01780826
0.01782441
0.01807007
0.01825896
0.01842396
0.0185598
0.0186699
0.01876038
0.01883646
0.01890212
0.01896033
0.01901332
0.01906277
0.01911
0.01915599
0.01920148
0.019247
0.0192928
0.01933889
0.019385
0.01943049
0.01947449
0.01951586
0.01955334
0.01958601
0.01961351
0.01963639
0.01965597
0.01967391
0.01969207
0.01971212
0.01973576
0.01976428
0.019799
0.01984117
0.019892
0.01995284
0.02002531
0.02011128
0.02021317
0.02033421
0.0204787
0.02065317
0.02086821
0.02114329
0.02151747
0.02207039
0.02292612
0.02665613
0.06759388
0.01780777
0.01782367
0.01806897
0.01825745
0.018422
0.01855734
0.01866691
0.01875679
0.01883221
0.01889713
0.01895448
0.01900646
0.01905475
0.01910061
0.01914502
0.01918865
0.01923202
0.01927539
0.01931879
0.01936199
0.01940449
0.01944559
0.0194844
0.01951997
0.01955162
0.01957915
0.01960306
0.01962439
0.01964457
0.01966518
0.01968773
0.01971368
0.01974432
0.01978089
0.01982462
0.01987676
0.01993866
0.02001199
0.02009862
0.02020103
0.02032242
0.02046717
0.02064181
0.02085692
0.02113201
0.02150611
0.02205885
0.02291449
0.02664514
0.06759851
0.01780709
0.01782266
0.01806749
0.01825542
0.01841937
0.01855409
0.01866298
0.01875214
0.01882677
0.0188908
0.01894717
0.01899803
0.01904503
0.01908941
0.01913212
0.0191738
0.01921496
0.01925586
0.01929653
0.01933681
0.01937639
0.01941468
0.01945098
0.01948467
0.01951529
0.01954273
0.01956742
0.01959025
0.01961241
0.01963522
0.01966001
0.01968809
0.01972068
0.01975897
0.01980415
0.0198575
0.01992039
0.01999445
0.02008164
0.02018447
0.02030611
0.02045101
0.0206257
0.02084078
0.02111575
0.02148964
0.02204205
0.02289751
0.02662908
0.06760534
0.01780622
0.01782137
0.0180656
0.01825284
0.01841607
0.01855002
0.01865811
0.01874642
0.01882014
0.01888319
0.01893846
0.0189881
0.01903373
0.01907656
0.0191175
0.01915721
0.01919614
0.01923459
0.01927261
0.01931013
0.01934691
0.01938252
0.01941651
0.01944844
0.019478
0.01950521
0.01953046
0.01955449
0.01957826
0.01960292
0.01962964
0.01965957
0.01969384
0.01973363
0.01978008
0.01983443
0.01989813
0.01997278
0.02006039
0.02016348
0.02028524
0.02043015
0.02060475
0.02081966
0.02109437
0.02146789
0.02201981
0.02287499
0.02660777
0.06761448
0.01780514
0.01781977
0.01806328
0.0182497
0.01841204
0.0185451
0.01865226
0.01873961
0.01881231
0.01887427
0.01892837
0.01897672
0.01902092
0.01906217
0.01910134
0.01913908
0.01917584
0.01921193
0.01924745
0.01928237
0.01931657
0.01934972
0.01938156
0.01941184
0.01944035
0.01946719
0.01949273
0.0195176
0.01954263
0.01956872
0.01959699
0.01962845
0.01966409
0.01970508
0.01975253
0.01980769
0.01987198
0.01994702
0.02003487
0.02013801
0.02025972
0.02040446
0.02057881
0.02079337
0.02106765
0.02144064
0.02199188
0.02284666
0.02658094
0.06762607
0.01780382
0.01781783
0.01806047
0.01824592
0.01840725
0.01853926
0.01864537
0.01873164
0.01880323
0.01886402
0.01891687
0.01896389
0.01900663
0.01904626
0.01908367
0.01911949
0.01915418
0.01918804
0.01922121
0.01925374
0.01928554
0.01931648
0.01934635
0.01937507
0.01940254
0.0194289
0.01945448
0.01947987
0.01950573
0.01953287
0.01956229
0.01959483
0.01963151
0.01967338
0.01972155
0.01977725
0.01984186
0.01991706
0.02000493
0.02010792
0.02022936
0.02037373
0.02054761
0.02076163
0.02103529
0.02140753
0.02195786
0.02281211
0.0265482
0.0676403
0.01780222
0.01781549
0.01805712
0.01824143
0.01840158
0.01853242
0.01863735
0.01872243
0.01879281
0.01885234
0.01890388
0.01894951
0.01899076
0.0190288
0.0190645
0.01909848
0.01913118
0.01916293
0.01919392
0.01922424
0.01925387
0.01928276
0.01931084
0.01933808
0.01936448
0.01939023
0.01941566
0.01944124
0.01946758
0.0194954
0.01952556
0.01955881
0.01959616
0.01963858
0.01968713
0.01974302
0.01980769
0.0198828
0.01997039
0.02007299
0.02019391
0.02033766
0.02051083
0.02072406
0.02099685
0.0213681
0.02191728
0.02277083
0.02650904
0.06765741
0.01780028
0.01781268
0.01805313
0.01823611
0.01839492
0.01852442
0.01862803
0.01871181
0.01878088
0.01883909
0.01888927
0.01893347
0.01897324
0.01900969
0.0190437
0.01907589
0.01910671
0.01913649
0.01916546
0.01919374
0.01922138
0.01924841
0.01927481
0.01930062
0.01932595
0.019351
0.01937605
0.01940153
0.019428
0.01945612
0.01948661
0.01952025
0.01955788
0.01960048
0.01964906
0.01970486
0.01976928
0.01984398
0.019931
0.0200329
0.020153
0.02029584
0.020468
0.02068016
0.02095179
0.02132176
0.02186947
0.02272215
0.02646281
0.06767772
0.01779791
0.0178093
0.01804835
0.0182298
0.01838707
0.01851507
0.01861722
0.01869958
0.01876725
0.01882406
0.01887281
0.01891556
0.01895382
0.01898871
0.01902107
0.01905153
0.01908055
0.01910848
0.01913557
0.01916194
0.01918775
0.01921304
0.01923785
0.01926231
0.01928653
0.01931074
0.01933523
0.01936039
0.01938668
0.01941475
0.01944524
0.01947887
0.01951641
0.01955881
0.01960711
0.01966248
0.0197263
0.01980024
0.01988636
0.01998723
0.02010618
0.02024774
0.02041856
0.02062929
0.02089941
0.02126774
0.02181362
0.02266518
0.02640865
0.06770163
0.01779501
0.01780519
0.0180426
0.01822227
0.01837778
0.01850408
0.01860462
0.01868542
0.01875159
0.01880693
0.0188542
0.01889546
0.0189322
0.01896552
0.01899626
0.01902505
0.01905235
0.01907852
0.01910385
0.01912846
0.01915252
0.01917615
0.01919946
0.01922258
0.01924567
0.01926892
0.01929266
0.01931725
0.01934313
0.01937085
0.01940097
0.01943422
0.01947134
0.01951323
0.01956089
0.01961545
0.01967831
0.01975114
0.01983599
0.01993544
0.02005283
0.02019272
0.02036176
0.02057064
0.0208388
0.02120506
0.02174867
0.0225988
0.02634548
0.06772968
0.0177914
0.01780013
0.01803562
0.01821322
0.0183667
0.01849109
0.01858984
0.01866896
0.01873352
0.01878729
0.01883303
0.01887276
0.01890795
0.01893971
0.01896885
0.01899601
0.01902164
0.01904612
0.01906974
0.01909268
0.01911511
0.0191372
0.01915905
0.01918082
0.01920269
0.01922491
0.01924775
0.01927154
0.01929672
0.01932377
0.01935325
0.0193858
0.01942217
0.0194632
0.01950983
0.01956322
0.01962475
0.01969608
0.01977924
0.01987683
0.0199922
0.02012994
0.0202967
0.02050319
0.02076886
0.02113247
0.02167324
0.02252157
0.02627188
0.06776259
0.01778687
0.01779385
0.01802703
0.01820219
0.01835333
0.01847557
0.01857234
0.01864963
0.01871246
0.01876458
0.01880873
0.01884688
0.0188805
0.01891067
0.01893823
0.01896377
0.01898779
0.01901064
0.01903259
0.01905391
0.01907476
0.01909532
0.01911572
0.01913614
0.01915676
0.01917783
0.01919961
0.01922242
0.01924668
0.0192728
0.01930135
0.01933292
0.0193682
0.01940799
0.01945326
0.01950511
0.01956491
0.01963429
0.01971531
0.01981054
0.01992336
0.02005835
0.02022221
0.02042566
0.02068816
0.02104842
0.02158562
0.02243165
0.02618601
0.06780127
0.01778115
0.01778595
0.01801632
0.01818858
0.01833703
0.01845683
0.01855141
0.0186267
0.01868768
0.01873806
0.01878052
0.01881704
0.01884904
0.01887762
0.01890357
0.01892751
0.01894991
0.01897116
0.01899153
0.01901126
0.01903054
0.01904957
0.01906851
0.01908755
0.01910687
0.01912668
0.01914726
0.01916892
0.01919205
0.01921704
0.01924438
0.01927464
0.01930851
0.01934675
0.01939028
0.0194402
0.01949783
0.01956481
0.01964317
0.01973548
0.01984511
0.01997668
0.02013688
0.02033647
0.02059491
0.0209509
0.02148358
0.02232661
0.02608548
0.06784698
0.01777399
0.01777596
0.0180028
0.01817156
0.01831685
0.0184339
0.01852605
0.01859918
0.01865818
0.01870671
0.0187474
0.01878221
0.01881254
0.01883947
0.01886379
0.01888611
0.01890691
0.01892655
0.01894533
0.01896349
0.01898125
0.01899878
0.01901626
0.01903386
0.01905178
0.01907025
0.01908952
0.01910986
0.01913163
0.01915523
0.0191811
0.01920981
0.01924196
0.01927831
0.01931974
0.01936732
0.01942234
0.01948641
0.01956153
0.01965027
0.019756
0.01988331
0.02003893
0.02023362
0.02048688
0.02083736
0.02136424
0.0222033
0.02596712
0.06790142
0.01776528
0.01776338
0.01798557
0.01814996
0.01829154
0.01840545
0.01849493
0.01856572
0.01862259
0.01866914
0.01870796
0.01874097
0.01876956
0.01879478
0.01881743
0.0188381
0.01885726
0.01887529
0.01889248
0.01890907
0.01892528
0.01894128
0.01895726
0.01897339
0.01898985
0.01900688
0.01902469
0.01904357
0.01906382
0.01908583
0.01911001
0.01913688
0.01916702
0.01920115
0.01924011
0.01928493
0.01933686
0.01939747
0.01946874
0.01955319
0.01965416
0.01977624
0.01992614
0.02011464
0.02036124
0.02070458
0.02122389
0.02205759
0.02582666
0.06796697
0.01775526
0.01774771
0.0179634
0.0181222
0.01825931
0.01836966
0.0184562
0.01852445
0.01857905
0.01862348
0.0186603
0.0186914
0.01871814
0.01874158
0.01876248
0.01878145
0.01879895
0.01881534
0.01883091
0.01884591
0.01886055
0.018875
0.01888944
0.01890404
0.01891899
0.01893447
0.01895072
0.01896799
0.01898656
0.01900678
0.01902905
0.01905383
0.01908167
0.01911326
0.01914937
0.019191
0.01923935
0.01929593
0.01936266
0.019442
0.01953725
0.01965294
0.01979575
0.01997643
0.02021445
0.02054842
0.02105771
0.02188397
0.02565832
0.06804707
0.01774399
0.01772878
0.01793454
0.01808597
0.0182177
0.018324
0.01840733
0.01847284
0.01852498
0.01856713
0.01860179
0.01863083
0.0186556
0.01867714
0.01869621
0.01871341
0.01872918
0.01874389
0.01875782
0.0187712
0.01878423
0.0187971
0.01880996
0.01882298
0.01883633
0.0188502
0.01886478
0.0188803
0.01889704
0.0189153
0.01893544
0.0189579
0.01898318
0.0190119
0.01904481
0.01908282
0.01912708
0.01917902
0.01924048
0.01931383
0.01940227
0.01951024
0.01964431
0.01981514
0.0200421
0.02036371
0.02085947
0.02167508
0.02545409
0.06814679
0.01776058
0.0177115
0.01789691
0.01803797
0.01816326
0.01826502
0.01834485
0.01840741
0.01845687
0.01849652
0.01852881
0.01855559
0.01857823
0.01859773
0.01861486
0.0186302
0.01864418
0.01865715
0.01866939
0.01868111
0.01869251
0.01870376
0.018715
0.01872639
0.01873808
0.01875024
0.01876306
0.01877673
0.0187915
0.01880764
0.01882547
0.01884539
0.01886785
0.01889342
0.01892277
0.01895675
0.01899642
0.0190431
0.01909853
0.01916494
0.01924539
0.01934412
0.01946755
0.01962607
0.01983881
0.02014401
0.02062125
0.02142118
0.02520277
0.06827405
0.01821434
0.01775924
0.01784883
0.01797427
0.01809162
0.01818818
0.01826418
0.01832353
0.01837003
0.01840686
0.01843649
0.01846077
0.01848105
0.01849835
0.0185134
0.01852677
0.01853889
0.01855006
0.01856056
0.01857059
0.01858032
0.01858991
0.01859949
0.01860921
0.01861919
0.01862959
0.01864056
0.01865228
0.01866496
0.01867885
0.01869422
0.01871141
0.01873083
0.01875297
0.01877845
0.01880801
0.0188426
0.01888343
0.01893208
0.0189906
0.01906181
0.01914971
0.01926034
0.0194037
0.01959833
0.0198818
0.02033343
0.0211097
0.02488876
0.06844179
0.02071889
0.01811227
0.01780145
0.01789242
0.01799898
0.01808857
0.01815996
0.01821575
0.01825887
0.01829245
0.01831902
0.01834046
0.01835814
0.01837304
0.01838587
0.01839716
0.01840732
0.01841665
0.01842536
0.01843366
0.0184417
0.01844961
0.01845751
0.01846552
0.01847376
0.01848234
0.01849141
0.01850112
0.01851164
0.01852317
0.01853595
0.01855027
0.01856647
0.01858498
0.01860631
0.01863112
0.01866023
0.01869468
0.01873587
0.0187856
0.0188464
0.01892185
0.01901749
0.01914257
0.0193146
0.01956972
0.01998605
0.02072619
0.02449147
0.0686725
0.0186935
0.01781077
0.01773514
0.01779672
0.01788273
0.01796233
0.01802937
0.01808121
0.01812038
0.01815011
0.01817312
0.01819134
0.01820613
0.01821843
0.0182289
0.01823803
0.01824618
0.01825362
0.01826054
0.0182671
0.01827344
0.01827967
0.01828589
0.0182922
0.01829868
0.01830545
0.01831261
0.01832027
0.01832859
0.01833772
0.01834785
0.01835922
0.01837211
0.01838685
0.01840388
0.01842372
0.01844705
0.01847476
0.01850798
0.01854824
0.01859767
0.01865934
0.01873803
0.01884193
0.01898682
0.01920626
0.01957539
0.02026076
0.02398466
0.069006
0.02202527
0.01806094
0.0177336
0.0177275
0.01777894
0.0178373
0.01788259
0.01792648
0.01795991
0.01798488
0.01800373
0.01801837
0.01803004
0.01803961
0.01804766
0.01805461
0.01806076
0.01806634
0.0180715
0.01807637
0.01808107
0.01808568
0.01809027
0.01809493
0.01809972
0.01810472
0.01811002
0.01811569
0.01812186
0.01812864
0.01813617
0.01814463
0.01815424
0.01816524
0.01817798
0.01819286
0.01821041
0.0182313
0.01825642
0.01828698
0.01832467
0.01837193
0.01843263
0.01851354
0.0186281
0.01880622
0.01911828
0.01972837
0.02336008
0.06952315
0.02029378
0.01841415
0.01829252
0.01823866
0.01821891
0.01816345
0.01776776
0.01772417
0.01774373
0.0177623
0.0177765
0.01778741
0.01779602
0.01780299
0.01780878
0.01781372
0.01781805
0.01782194
0.01782553
0.0178289
0.01783213
0.0178353
0.01783845
0.01784165
0.01784494
0.01784837
0.017852
0.0178559
0.01786015
0.01786482
0.01787001
0.01787586
0.01788251
0.01789015
0.01789901
0.01790939
0.01792166
0.01793632
0.01795402
0.01797565
0.01800244
0.01803625
0.01808001
0.01813904
0.01822448
0.01836348
0.01862832
0.01924849
0.02318304
0.07057902
0.02592843
0.02008541
0.02154524
0.02162139
0.02149514
0.02104624
0.01821068
0.0177566
0.01775019
0.01776436
0.01777448
0.0177823
0.01778846
0.01779342
0.01779751
0.01780097
0.01780396
0.01780664
0.01780908
0.01781136
0.01781355
0.01781568
0.01781781
0.01781995
0.01782216
0.01782446
0.01782691
0.01782953
0.01783239
0.01783554
0.01783904
0.017843
0.0178475
0.01785269
0.01785872
0.0178658
0.0178742
0.01788427
0.01789648
0.01791147
0.01793015
0.01795392
0.01798505
0.01802788
0.01809231
0.01820374
0.01846186
0.01952284
0.0261342
0.07138348
0.02147506
0.01927941
0.01803956
0.01654631
0.01675684
0.01668761
0.01611042
0.01584835
0.01579483
0.01579724
0.01580707
0.01581552
0.01582211
0.01582732
0.01583161
0.01583526
0.01583847
0.01584136
0.01584402
0.01584651
0.01584887
0.01585115
0.01585336
0.01585554
0.01585772
0.01585992
0.01586218
0.01586455
0.01586709
0.01586984
0.0158729
0.01587635
0.01588031
0.0158849
0.01589029
0.01589669
0.01590436
0.01591365
0.01592502
0.01593909
0.01595674
0.01597934
0.01600916
0.01605084
0.01611618
0.01624296
0.01658831
0.0179509
0.02474825
0.07440559
0.01907705
0.01695031
0.01628447
0.0159905
0.01611356
0.01611005
0.01590933
0.01582323
0.01581707
0.01583081
0.0158447
0.01585572
0.01586433
0.01587125
0.01587701
0.01588197
0.01588636
0.01589034
0.01589403
0.01589749
0.01590079
0.01590396
0.01590705
0.01591009
0.01591311
0.01591616
0.0159193
0.01592258
0.01592607
0.01592987
0.01593407
0.01593882
0.01594424
0.01595054
0.01595792
0.01596667
0.01597714
0.01598979
0.01600522
0.01602424
0.016048
0.01607819
0.01611756
0.01617132
0.01625145
0.01639202
0.01671271
0.01777498
0.02331734
0.07198773
0.01694311
0.01616075
0.01588965
0.01584641
0.0159137
0.01595745
0.01595567
0.01596887
0.01599249
0.01601498
0.0160331
0.01604728
0.01605858
0.01606787
0.01607574
0.01608262
0.01608877
0.0160944
0.01609964
0.01610458
0.0161093
0.01611384
0.01611826
0.0161226
0.01612691
0.01613124
0.01613568
0.01614031
0.01614523
0.01615056
0.01615646
0.0161631
0.0161707
0.01617949
0.01618979
0.01620198
0.01621653
0.01623406
0.01625538
0.01628155
0.01631408
0.01635516
0.01640827
0.01647967
0.01658275
0.016752
0.01709873
0.0181342
0.02345898
0.06975772
0.01741293
0.01625089
0.01587994
0.01587577
0.01595029
0.01601999
0.01607247
0.01611563
0.01615088
0.01617874
0.01620057
0.0162179
0.01623201
0.01624384
0.01625403
0.01626303
0.01627118
0.01627868
0.0162857
0.01629234
0.0162987