/*--------------------------------*- C++ -*----------------------------------*\
| =========                 |                                                 |
| \\      /  F ield         | OpenFOAM: The Open Source CFD Toolbox           |
|  \\    /   O peration     | Version:  2506                                  |
|   \\  /    A nd           | Website:  www.openfoam.com                      |
|    \\/     M anipulation  |                                                 |
\*---------------------------------------------------------------------------*/
FoamFile
{
    version     2.0;
    format      ascii;
    arch        "LSB;label=32;scalar=64";
    class       volScalarField;
    location    "120/airRegion";
    object      k;
}
// * * * * * * * * * * * * * * * * * * * * * * * * * * * * * * * * * * * * * //

dimensions      [0 2 -2 0 0 0 0];

internalField   nonuniform List<scalar> 
260661
(
0.1685469
0.162594
0.1588069
0.1434164
0.1436155
0.1435222
0.141844
0.1409861
0.1408265
0.1408587
0.1409074
0.1409457
0.1409745
0.140997
0.1410154
0.1410309
0.1410444
0.1410567
0.1410679
0.1410783
0.1410883
0.1410979
0.1411072
0.1411163
0.1411255
0.1411347
0.1411442
0.1411542
0.1411649
0.1411765
0.1411894
0.1412039
0.1412205
0.1412398
0.1412624
0.1412892
0.1413213
0.14136
0.1414073
0.1414656
0.1415381
0.1416293
0.1417448
0.1418904
0.142065
0.1422167
0.1421333
0.1417452
0.1446362
0.1082296
0.1615887
0.1441949
0.1421335
0.1409434
0.1415165
0.1416337
0.1410196
0.1407742
0.1407935
0.1408702
0.1409372
0.1409883
0.1410277
0.1410592
0.1410853
0.1411077
0.1411276
0.1411455
0.1411621
0.1411777
0.1411926
0.1412069
0.1412208
0.1412345
0.1412481
0.1412618
0.1412759
0.1412906
0.1413063
0.1413234
0.1413423
0.1413636
0.1413879
0.141416
0.141449
0.1414881
0.1415346
0.1415907
0.1416589
0.1417426
0.1418462
0.1419759
0.1421398
0.1423471
0.1426019
0.1428671
0.142869
0.1411203
0.1358112
0.107543
0.1444464
0.1412074
0.1406827
0.1407401
0.1410994
0.14135
0.1414328
0.1415463
0.141673
0.1417818
0.1418665
0.141932
0.141984
0.1420265
0.1420626
0.142094
0.1421221
0.1421478
0.1421717
0.1421943
0.1422158
0.1422365
0.1422567
0.1422765
0.1422961
0.1423159
0.1423361
0.1423572
0.1423795
0.1424038
0.1424306
0.1424608
0.1424952
0.142535
0.1425816
0.1426365
0.142702
0.1427806
0.1428758
0.1429921
0.1431356
0.1433145
0.1435399
0.1438253
0.1441811
0.1445754
0.1447214
0.1428673
0.1363194
0.1064112
0.1474209
0.142169
0.1408035
0.1409657
0.1413556
0.1416891
0.141948
0.1421576
0.1423227
0.1424514
0.1425515
0.142631
0.1426956
0.1427498
0.1427964
0.1428376
0.1428749
0.1429092
0.1429413
0.1429717
0.1430007
0.1430287
0.1430559
0.1430826
0.143109
0.1431354
0.1431624
0.1431904
0.1432201
0.1432522
0.1432876
0.1433274
0.1433727
0.1434252
0.1434864
0.1435585
0.1436443
0.143747
0.1438711
0.1440222
0.1442078
0.1444383
0.1447274
0.1450927
0.14555
0.1460735
0.1463773
0.1446868
0.1381841
0.1058606
0.1485584
0.1426418
0.1410742
0.1413143
0.1417766
0.1421614
0.142464
0.1426998
0.1428825
0.1430254
0.1431388
0.1432307
0.1433072
0.1433724
0.1434294
0.1434803
0.1435268
0.14357
0.1436105
0.1436491
0.143686
0.1437216
0.1437562
0.1437899
0.1438232
0.1438565
0.1438903
0.1439252
0.1439621
0.1440018
0.1440456
0.1440948
0.1441508
0.1442154
0.1442909
0.1443797
0.1444852
0.1446112
0.144763
0.1449471
0.1451724
0.1454508
0.1457981
0.1462346
0.146779
0.1474079
0.1478313
0.1462361
0.1396633
0.1055113
0.1473522
0.142413
0.1413005
0.1416467
0.1421529
0.1425662
0.1428869
0.1431359
0.1433305
0.1434849
0.1436098
0.1437129
0.1438001
0.1438756
0.1439425
0.144003
0.1440587
0.1441108
0.1441599
0.1442067
0.1442518
0.1442951
0.1443372
0.1443782
0.1444184
0.1444584
0.1444986
0.1445401
0.1445838
0.1446307
0.1446823
0.1447401
0.1448059
0.144882
0.1449706
0.1450749
0.1451985
0.1453459
0.1455229
0.145737
0.1459978
0.1463183
0.1467156
0.1472114
0.1478255
0.1485337
0.1490392
0.1474913
0.1408076
0.1052712
0.1425235
0.141074
0.1413689
0.1419214
0.1424559
0.142884
0.1432162
0.1434752
0.1436798
0.1438443
0.1439793
0.1440925
0.1441897
0.1442749
0.1443513
0.144421
0.1444858
0.1445467
0.1446046
0.14466
0.1447133
0.1447647
0.1448143
0.1448625
0.1449095
0.144956
0.1450024
0.1450499
0.1450997
0.145153
0.1452115
0.145277
0.1453516
0.1454379
0.1455383
0.1456565
0.1457963
0.1459628
0.1461621
0.1464023
0.1466937
0.14705
0.1474888
0.1480322
0.1486999
0.1494657
0.1500253
0.1484973
0.141704
0.1050972
0.140972
0.1407301
0.1415187
0.142145
0.1426922
0.1431303
0.1434719
0.1437398
0.1439535
0.1441272
0.1442715
0.144394
0.1445005
0.1445949
0.1446805
0.1447594
0.1448332
0.1449031
0.14497
0.1450341
0.1450959
0.1451555
0.1452129
0.1452683
0.145322
0.1453746
0.1454268
0.1454796
0.1455347
0.1455934
0.1456577
0.1457299
0.145812
0.145907
0.1460177
0.1461479
0.1463019
0.1464849
0.1467035
0.1469661
0.1472834
0.1476691
0.1481415
0.1487223
0.1494303
0.150237
0.1508316
0.1493083
0.142416
0.1049653
0.1408017
0.140777
0.1416619
0.142313
0.1428727
0.1433211
0.1436718
0.1439486
0.1441709
0.1443532
0.1445062
0.1446375
0.1447528
0.1448561
0.1449507
0.1450386
0.1451216
0.1452008
0.1452768
0.14535
0.1454206
0.1454886
0.1455539
0.1456165
0.1456768
0.1457352
0.1457925
0.1458501
0.1459094
0.1459726
0.1460416
0.146119
0.1462072
0.1463094
0.1464287
0.1465691
0.1467351
0.1469321
0.1471671
0.1474484
0.147787
0.1481968
0.1486958
0.1493053
0.1500433
0.1508787
0.1514958
0.1499695
0.1429909
0.1048621
0.1408539
0.1408641
0.1417724
0.1424392
0.1430112
0.1434699
0.14383
0.1441154
0.1443461
0.1445367
0.1446979
0.1448376
0.1449614
0.1450734
0.1451769
0.1452739
0.1453662
0.1454548
0.1455404
0.1456231
0.145703
0.1457799
0.1458534
0.1459235
0.1459902
0.1460539
0.1461156
0.1461769
0.1462394
0.1463058
0.1463781
0.1464593
0.1465521
0.1466599
0.1467862
0.1469348
0.1471107
0.1473194
0.1475678
0.1478645
0.1482204
0.1486495
0.1491694
0.1498009
0.1505609
0.1514165
0.1520478
0.1505146
0.1434622
0.1047792
0.1409036
0.1409293
0.1418538
0.1425346
0.1431185
0.1435875
0.1439567
0.1442505
0.1444893
0.1446878
0.144857
0.1450048
0.1451368
0.1452574
0.1453696
0.1454759
0.1455778
0.1456762
0.1457717
0.1458645
0.1459542
0.1460403
0.1461226
0.1462002
0.1462732
0.1463418
0.1464073
0.1464714
0.1465359
0.146604
0.1466781
0.1467617
0.1468575
0.1469692
0.1471006
0.1472558
0.1474396
0.1476576
0.147917
0.1482261
0.1485959
0.1490402
0.1495763
0.1502245
0.1510007
0.1518703
0.1525104
0.150969
0.1438534
0.1047114
0.1409383
0.1409764
0.1419144
0.1426078
0.1432028
0.1436816
0.1440595
0.1443614
0.1446079
0.1448141
0.1449909
0.1451465
0.1452866
0.1454156
0.1455367
0.1456523
0.145764
0.1458726
0.1459787
0.1460821
0.1461823
0.1462785
0.1463698
0.1464551
0.1465343
0.1466075
0.1466759
0.1467414
0.1468067
0.1468751
0.1469495
0.1470337
0.147131
0.1472451
0.14738
0.1475399
0.1477296
0.147955
0.1482229
0.148542
0.1489227
0.1493789
0.1499274
0.1505881
0.1513761
0.1522555
0.1529011
0.151351
0.1441815
0.1046552
0.1409636
0.1410114
0.1419606
0.142665
0.1432701
0.1437578
0.1441438
0.1444534
0.1447072
0.1449206
0.1451048
0.1452679
0.1454159
0.1455532
0.1456833
0.1458083
0.14593
0.1460492
0.1461664
0.1462811
0.1463925
0.1464994
0.1466003
0.1466938
0.1467792
0.1468563
0.1469266
0.1469925
0.1470572
0.1471241
0.1471972
0.1472805
0.1473777
0.1474927
0.1476294
0.1477924
0.1479866
0.1482175
0.148492
0.1488187
0.149208
0.1496733
0.1502313
0.1509015
0.1516981
0.1525843
0.153233
0.1516745
0.1444589
0.1046081
0.1409827
0.1410381
0.1419967
0.1427105
0.1433244
0.1438202
0.1442137
0.1445304
0.1447911
0.1450113
0.1452025
0.1453728
0.1455284
0.145674
0.1458128
0.1459474
0.1460793
0.1462095
0.1463382
0.1464649
0.1465882
0.1467066
0.1468177
0.1469197
0.1470111
0.1470918
0.1471631
0.147228
0.1472904
0.1473545
0.1474249
0.1475057
0.1476013
0.1477156
0.1478529
0.1480176
0.1482146
0.1484495
0.1487289
0.1490615
0.1494573
0.1499296
0.1504948
0.151172
0.1519748
0.1528657
0.1535161
0.1519498
0.1446946
0.1045682
0.1409975
0.1410591
0.1420253
0.1427472
0.1433688
0.1438717
0.1442721
0.1445952
0.1448622
0.1450888
0.1452865
0.1454637
0.1456267
0.1457802
0.1459277
0.1460716
0.1462139
0.1463553
0.1464959
0.146635
0.1467709
0.1469013
0.1470233
0.1471341
0.1472316
0.1473152
0.1473867
0.1474494
0.147508
0.1475678
0.1476339
0.1477109
0.1478037
0.1479161
0.1480529
0.1482181
0.1484167
0.1486543
0.1489374
0.1492742
0.149675
0.1501526
0.1507232
0.1514055
0.1522129
0.153107
0.1537582
0.1521846
0.1448956
0.1045345
0.1410092
0.1410757
0.1420483
0.1427771
0.1434052
0.1439145
0.1443209
0.1446498
0.1449226
0.1451551
0.1453589
0.1455425
0.1457124
0.1458734
0.1460292
0.1461823
0.1463347
0.1464872
0.1466398
0.1467916
0.1469405
0.1470833
0.1472165
0.1473364
0.1474398
0.1475259
0.1475965
0.1476559
0.1477097
0.147764
0.1478247
0.1478969
0.1479858
0.1480956
0.1482309
0.1483957
0.148595
0.1488343
0.1491199
0.1494598
0.1498644
0.1503459
0.1509206
0.1516068
0.1524174
0.1533137
0.1539651
0.1523851
0.1450671
0.1045058
0.1410185
0.1410891
0.142067
0.1428015
0.1434353
0.14395
0.1443617
0.1446958
0.1449738
0.1452115
0.1454208
0.1456103
0.1457866
0.1459546
0.146118
0.1462798
0.1464419
0.1466051
0.1467694
0.1469335
0.1470952
0.1472506
0.1473951
0.1475239
0.1476331
0.1477211
0.1477902
0.1478455
0.1478937
0.1479419
0.1479965
0.1480633
0.1481478
0.1482545
0.1483876
0.1485515
0.148751
0.1489912
0.1492786
0.1496209
0.1500282
0.1505127
0.1510905
0.1517795
0.1525925
0.1534903
0.1541415
0.1525558
0.1452131
0.1044814
0.1410259
0.1410999
0.1420822
0.1428214
0.14346
0.1439794
0.1443956
0.1447342
0.1450167
0.1452591
0.1454731
0.1456678
0.1458497
0.146024
0.1461944
0.146364
0.146535
0.1467079
0.1468829
0.1470588
0.1472325
0.1473997
0.1475549
0.1476923
0.1478068
0.1478964
0.1479637
0.1480147
0.1480569
0.1480988
0.1481473
0.1482089
0.148289
0.1483925
0.1485234
0.1486863
0.1488856
0.1491263
0.149415
0.1497591
0.1501684
0.1506553
0.1512354
0.1519266
0.1527413
0.1536401
0.154291
0.1527004
0.1453368
0.1044609
0.1410319
0.1411085
0.1420944
0.1428376
0.1434801
0.1440034
0.1444234
0.1447658
0.1450521
0.1452984
0.1455165
0.1457156
0.1459022
0.1460817
0.1462582
0.1464345
0.1466128
0.1467942
0.1469786
0.1471645
0.1473487
0.1475264
0.147691
0.1478359
0.1479552
0.1480461
0.1481116
0.1481587
0.1481957
0.148232
0.1482752
0.1483322
0.1484086
0.1485092
0.1486384
0.1488003
0.1489993
0.1492406
0.1495303
0.1498758
0.1502868
0.1507756
0.1513575
0.1520503
0.1528664
0.1537659
0.1544163
0.1528216
0.1454404
0.1044438
0.1410366
0.1411154
0.1421041
0.1428505
0.1434962
0.1440227
0.1444457
0.1447912
0.1450805
0.14533
0.1455514
0.1457539
0.1459443
0.146128
0.146309
0.1464905
0.1466746
0.1468627
0.1470544
0.147248
0.1474404
0.1476262
0.1477984
0.1479493
0.1480723
0.1481644
0.1482287
0.1482729
0.1483063
0.1483384
0.1483777
0.1484314
0.1485053
0.1486041
0.1487322
0.1488936
0.1490928
0.1493347
0.1496254
0.1499722
0.1503847
0.150875
0.1514584
0.1521526
0.1529698
0.1538698
0.1545199
0.1529217
0.145526
0.1044297
0.1410402
0.1411207
0.1421116
0.1428605
0.1435087
0.1440375
0.144463
0.1448108
0.1451025
0.1453542
0.1455781
0.1457831
0.1459761
0.1461626
0.1463468
0.1465317
0.1467196
0.146912
0.1471084
0.1473071
0.1475048
0.1476957
0.1478728
0.1480277
0.1481534
0.1482467
0.1483108
0.1483537
0.1483853
0.1484155
0.1484532
0.1485054
0.1485784
0.1486766
0.1488047
0.1489665
0.1491663
0.1494092
0.1497012
0.1500493
0.1504631
0.1509548
0.1515396
0.1522349
0.153053
0.1539535
0.1546033
0.1530023
0.145595
0.1044183
0.1410428
0.1411245
0.1421172
0.1428678
0.1435178
0.1440484
0.1444756
0.144825
0.1451182
0.1453715
0.1455968
0.1458032
0.1459977
0.1461857
0.1463714
0.1465579
0.1467475
0.1469416
0.1471398
0.1473403
0.14754
0.147733
0.147912
0.1480687
0.1481959
0.1482903
0.1483554
0.148399
0.1484312
0.1484621
0.1485004
0.1485535
0.1486274
0.1487267
0.148856
0.1490191
0.1492203
0.1494646
0.1497581
0.1501077
0.150523
0.151016
0.151602
0.1522984
0.1531173
0.1540182
0.1546679
0.1530648
0.1456485
0.1044096
0.1410446
0.1411272
0.1421209
0.1428726
0.1435238
0.1440555
0.1444837
0.144834
0.145128
0.145382
0.1456078
0.1458147
0.1460094
0.1461975
0.1463831
0.1465692
0.1467581
0.1469513
0.1471484
0.1473476
0.1475458
0.1477373
0.1479152
0.1480714
0.1481988
0.1482945
0.1483616
0.148408
0.1484435
0.1484778
0.1485194
0.1485757
0.1486525
0.1487546
0.1488864
0.1490518
0.1492552
0.1495015
0.1497968
0.1501481
0.1505649
0.1510594
0.1516465
0.152344
0.1531637
0.1540651
0.1547147
0.1531101
0.1456874
0.1044033
0.1410456
0.1411286
0.1421228
0.1428752
0.1435269
0.1440591
0.1444876
0.1448381
0.1451322
0.145386
0.1456115
0.1458177
0.1460115
0.1461983
0.1463821
0.146566
0.1467523
0.146942
0.1471352
0.1473301
0.1475236
0.1477105
0.1478845
0.1480378
0.1481643
0.1482613
0.1483317
0.1483828
0.1484237
0.1484638
0.1485111
0.1485727
0.1486544
0.1487608
0.1488964
0.1490652
0.1492715
0.1495204
0.1498178
0.150171
0.1505895
0.1510854
0.1516738
0.1523723
0.1531927
0.1540946
0.1547444
0.1531391
0.1457124
0.1043993
0.1410458
0.1411289
0.1421232
0.1428755
0.1435272
0.1440592
0.1444874
0.1448374
0.1451308
0.1453837
0.145608
0.1458127
0.1460046
0.1461888
0.1463694
0.1465495
0.1467312
0.1469155
0.1471023
0.1472904
0.1474766
0.1476564
0.1478239
0.1479727
0.1480973
0.1481955
0.1482699
0.148327
0.1483753
0.1484229
0.1484778
0.1485464
0.1486345
0.1487466
0.148887
0.1490599
0.1492698
0.1495216
0.1498215
0.1501768
0.1505972
0.1510945
0.1516842
0.1523836
0.1532049
0.1541074
0.1547575
0.1531519
0.1457236
0.1043975
0.1410453
0.141128
0.1421219
0.1428738
0.1435248
0.144056
0.1444833
0.1448323
0.1451244
0.1453756
0.145598
0.1458003
0.1459892
0.1461698
0.1463462
0.1465211
0.1466968
0.1468739
0.1470527
0.147232
0.1474089
0.1475797
0.1477393
0.1478823
0.1480041
0.1481033
0.148182
0.1482461
0.1483027
0.1483592
0.1484228
0.1484997
0.148595
0.1487135
0.1488595
0.149037
0.1492508
0.1495059
0.1498085
0.150166
0.1505882
0.151087
0.1516778
0.1523783
0.1532003
0.1541034
0.1547539
0.1531488
0.145721
0.1043979
0.1410441
0.1411262
0.1421191
0.1428699
0.1435197
0.1440497
0.1444755
0.1448228
0.145113
0.145362
0.1455818
0.145781
0.1459662
0.1461425
0.1463136
0.1464824
0.1466509
0.1468199
0.1469895
0.1471588
0.1473253
0.147486
0.1476368
0.1477732
0.1478919
0.1479917
0.1480748
0.1481458
0.148211
0.1482769
0.1483496
0.1484352
0.1485383
0.1486636
0.1488154
0.1489978
0.1492156
0.1494741
0.1497793
0.150139
0.1505629
0.1510631
0.151655
0.1523564
0.1531791
0.1540828
0.1547339
0.1531297
0.1457048
0.1044005
0.1410421
0.1411232
0.1421148
0.142864
0.1435121
0.1440402
0.1444641
0.1448092
0.1450969
0.1453432
0.1455598
0.1457553
0.1459362
0.1461075
0.1462729
0.1464349
0.1465955
0.1467557
0.1469156
0.1470743
0.1472302
0.1473805
0.1475223
0.1476519
0.1477671
0.1478672
0.1479541
0.1480316
0.148105
0.1481798
0.1482616
0.1483556
0.1484665
0.1485985
0.148756
0.1489434
0.1491651
0.1494268
0.1497346
0.1500963
0.1505218
0.1510232
0.1516161
0.1523181
0.1531414
0.1540457
0.1546976
0.153095
0.1456752
0.1044052
0.1410394
0.1411192
0.142109
0.1428561
0.143502
0.1440278
0.1444491
0.1447916
0.1450764
0.1453194
0.1455323
0.1457237
0.1458999
0.1460657
0.1462249
0.1463798
0.1465323
0.1466836
0.1468336
0.1469818
0.1471272
0.1472675
0.1474003
0.1475233
0.147635
0.147735
0.1478249
0.147908
0.1479886
0.1480715
0.1481615
0.1482633
0.1483813
0.1485197
0.1486826
0.1488745
0.1491
0.1493646
0.1496746
0.1500381
0.1504648
0.1509672
0.1515608
0.1522633
0.1530871
0.1539919
0.1546446
0.1530441
0.1456319
0.1044122
0.141036
0.1411141
0.1421016
0.1428461
0.1434892
0.1440122
0.1444305
0.1447698
0.1450513
0.1452907
0.1454996
0.1456865
0.1458577
0.1460178
0.1461705
0.1463182
0.1464626
0.1466049
0.1467454
0.1468837
0.147019
0.1471497
0.1472743
0.1473911
0.1474991
0.1475985
0.1476906
0.1477782
0.1478647
0.1479545
0.1480517
0.1481603
0.1482846
0.1484285
0.1485962
0.1487919
0.1490206
0.1492875
0.1495994
0.1499643
0.1503919
0.1508949
0.1514888
0.1521916
0.1530157
0.1539209
0.1545744
0.1529766
0.1455743
0.1044216
0.1410317
0.1411077
0.1420925
0.1428338
0.1434737
0.1439933
0.1444082
0.144744
0.1450217
0.1452571
0.1454617
0.1456438
0.1458097
0.1459641
0.1461103
0.1462508
0.1463873
0.1465211
0.1466525
0.1467814
0.1469074
0.1470293
0.1471462
0.1472572
0.1473616
0.1474598
0.1475532
0.147644
0.1477353
0.1478304
0.1479334
0.1480478
0.1481771
0.1483256
0.1484972
0.1486961
0.1489272
0.1491959
0.1495091
0.1498746
0.1503026
0.1508057
0.1513995
0.1521023
0.1529263
0.1538318
0.1544861
0.1528917
0.1455018
0.1044335
0.1410264
0.1411
0.1420814
0.1428191
0.1434552
0.1439709
0.144382
0.1447137
0.1449874
0.1452185
0.1454184
0.1455957
0.1457563
0.1459047
0.1460445
0.1461779
0.146307
0.1464326
0.1465554
0.1466757
0.1467931
0.1469071
0.147017
0.1471225
0.1472233
0.1473199
0.1474135
0.1475064
0.147601
0.1477001
0.1478074
0.1479259
0.1480593
0.1482112
0.1483856
0.1485868
0.1488194
0.1490891
0.1494028
0.1497684
0.1501962
0.1506988
0.1512921
0.1519942
0.1528179
0.1537233
0.1543784
0.1527879
0.1454132
0.1044481
0.14102
0.1410907
0.1420683
0.1428016
0.1434333
0.1439446
0.1443513
0.1446787
0.1449479
0.1451744
0.1453696
0.1455417
0.1456968
0.1458394
0.1459729
0.1460997
0.1462214
0.1463394
0.1464544
0.1465666
0.1466762
0.1467828
0.1468863
0.1469866
0.1470837
0.1471782
0.1472715
0.1473653
0.1474618
0.1475636
0.1476738
0.1477951
0.1479311
0.1480854
0.1482615
0.1484637
0.148697
0.1489668
0.1492801
0.149645
0.1500717
0.1505731
0.1511651
0.1518661
0.1526888
0.1535939
0.1542497
0.1526637
0.145307
0.1044657
0.1410123
0.1410796
0.1420526
0.1427809
0.1434076
0.1439139
0.1443157
0.1446383
0.1449027
0.1451243
0.1453145
0.1454814
0.1456311
0.1457679
0.1458952
0.1460155
0.1461304
0.1462412
0.1463488
0.1464537
0.146556
0.146656
0.1467535
0.1468487
0.146942
0.1470342
0.1471263
0.1472199
0.1473171
0.1474202
0.1475318
0.1476548
0.1477921
0.1479473
0.1481239
0.1483262
0.148559
0.1488279
0.1491398
0.149503
0.1499277
0.150427
0.1510169
0.151716
0.1525372
0.1534414
0.1540978
0.1525168
0.1451816
0.1044865
0.1410029
0.1410661
0.1420338
0.1427563
0.1433772
0.143878
0.1442744
0.1445918
0.144851
0.1450674
0.1452524
0.145414
0.1455582
0.1456893
0.1458106
0.1459245
0.1460328
0.1461369
0.1462377
0.1463357
0.1464314
0.1465251
0.1466169
0.1467073
0.1467968
0.1468861
0.1469763
0.147069
0.1471656
0.1472688
0.1473806
0.1475039
0.1476412
0.147796
0.1479719
0.1481731
0.1484043
0.1486711
0.1489805
0.1493408
0.1497625
0.1502586
0.1508454
0.1515415
0.1523604
0.1532632
0.1539197
0.1523446
0.1450343
0.1045111
0.1409913
0.1410498
0.1420112
0.142727
0.1433412
0.1438357
0.1442262
0.1445378
0.1447915
0.1450026
0.1451822
0.1453383
0.1454769
0.1456022
0.1457176
0.1458254
0.1459275
0.1460252
0.1461196
0.1462112
0.1463006
0.1463883
0.1464747
0.1465604
0.1466458
0.1467318
0.1468195
0.1469102
0.1470056
0.1471077
0.1472185
0.1473406
0.1474767
0.14763
0.1478041
0.1480028
0.148231
0.1484946
0.1488002
0.1491564
0.1495737
0.1500653
0.1506477
0.1513398
0.1521552
0.1530557
0.153712
0.1521433
0.1448621
0.1045399
0.140977
0.1410297
0.1419837
0.1426916
0.1432983
0.1437857
0.1441695
0.144475
0.1447227
0.1449281
0.1451021
0.1452526
0.1453855
0.1455052
0.1456147
0.1457166
0.1458126
0.1459041
0.1459923
0.1460778
0.1461613
0.1462435
0.1463247
0.1464055
0.1464867
0.146569
0.1466536
0.1467416
0.1468346
0.1469345
0.1470432
0.1471631
0.1472968
0.1474473
0.1476181
0.1478131
0.1480371
0.148296
0.1485964
0.148947
0.1493585
0.149844
0.1504205
0.1511069
0.1519175
0.1528146
0.15347
0.1519084
0.144661
0.1045737
0.140959
0.1410047
0.1419499
0.1426486
0.1432465
0.1437259
0.1441024
0.1444011
0.1446425
0.1448418
0.1450099
0.1451547
0.1452819
0.1453958
0.1454995
0.1455955
0.1456856
0.1457712
0.1458533
0.145933
0.1460108
0.1460875
0.1461634
0.1462394
0.1463161
0.1463944
0.1464752
0.1465598
0.1466497
0.1467464
0.146852
0.1469686
0.1470986
0.1472451
0.1474113
0.1476013
0.1478197
0.1480723
0.148366
0.1487093
0.1491131
0.1495907
0.1501592
0.1508382
0.1516421
0.1525342
0.1531877
0.1516337
0.1444257
0.1046135
0.1409364
0.1409734
0.1419078
0.1425954
0.1431832
0.1436535
0.1440219
0.1443132
0.1445479
0.1447408
0.1449028
0.1450416
0.1451629
0.1452709
0.1453688
0.1454589
0.1455431
0.1456229
0.1456993
0.1457732
0.1458453
0.1459164
0.1459872
0.1460582
0.1461302
0.146204
0.1462806
0.1463612
0.1464472
0.1465399
0.1466413
0.1467534
0.1468787
0.1470199
0.1471803
0.1473638
0.1475751
0.1478198
0.1481049
0.148439
0.1488329
0.1493004
0.1498586
0.1505275
0.1513223
0.1522072
0.1528572
0.1513115
0.1441493
0.1046605
0.1409079
0.1409336
0.1418545
0.1425288
0.1431047
0.1435647
0.1439242
0.1442075
0.1444349
0.1446211
0.1447766
0.1449091
0.1450243
0.1451263
0.1452183
0.1453025
0.1453809
0.1454548
0.1455254
0.1455936
0.1456602
0.1457259
0.1457913
0.1458572
0.1459242
0.1459932
0.1460652
0.1461411
0.1462222
0.1463101
0.1464064
0.1465131
0.1466324
0.1467671
0.1469204
0.1470959
0.1472984
0.1475335
0.147808
0.1481306
0.1485122
0.1489667
0.1495116
0.1501672
0.1509496
0.1518243
0.1524686
0.1509312
0.1438227
0.1047165
0.1408722
0.1408829
0.1417863
0.1424441
0.143006
0.1434543
0.1438038
0.1440786
0.1442982
0.1444771
0.1446258
0.1447518
0.1448606
0.1449564
0.1450422
0.1451204
0.1451929
0.1452609
0.1453257
0.1453882
0.1454491
0.1455093
0.1455693
0.1456298
0.1456916
0.1457555
0.1458222
0.1458929
0.1459687
0.146051
0.1461413
0.1462415
0.1463539
0.1464808
0.1466255
0.1467916
0.1469836
0.147207
0.1474687
0.1477773
0.1481436
0.1485818
0.1491095
0.1497477
0.1505133
0.1513735
0.1520085
0.1504791
0.1434333
0.104784
0.140827
0.1408171
0.1416971
0.1423345
0.1428798
0.1433149
0.1436535
0.143919
0.1441303
0.1443015
0.1444429
0.1445619
0.144664
0.1447533
0.1448327
0.1449047
0.144971
0.1450331
0.145092
0.1451487
0.1452039
0.1452584
0.1453129
0.1453679
0.1454242
0.1454825
0.1455436
0.1456085
0.1456783
0.1457542
0.1458377
0.1459306
0.1460348
0.1461529
0.1462876
0.1464427
0.1466224
0.146832
0.1470783
0.1473699
0.1477176
0.1481354
0.1486413
0.1492567
0.1499997
0.1508392
0.1514596
0.1499366
0.1429642
0.1048665
0.1407672
0.1407325
0.1415782
0.1421899
0.1427158
0.143136
0.1434629
0.1437184
0.1439208
0.1440837
0.1442173
0.1443288
0.1444237
0.144506
0.1445788
0.1446443
0.1447043
0.1447602
0.1448131
0.1448638
0.1449132
0.144962
0.1450107
0.1450599
0.1451104
0.1451629
0.1452179
0.1452766
0.1453398
0.1454087
0.1454846
0.1455692
0.1456643
0.1457722
0.1458957
0.1460381
0.1462035
0.1463971
0.1466254
0.1468968
0.1472218
0.1476144
0.1480928
0.1486786
0.149391
0.1502012
0.1507988
0.1492786
0.1423918
0.1049694
0.1408235
0.1406518
0.1414202
0.1419961
0.1424996
0.1429035
0.1432177
0.1434627
0.1436555
0.1438094
0.1439343
0.1440376
0.1441247
0.1441996
0.1442652
0.1443239
0.1443773
0.1444268
0.1444735
0.1445182
0.1445616
0.1446044
0.1446472
0.1446905
0.144735
0.1447812
0.1448299
0.1448818
0.1449379
0.1449991
0.1450667
0.1451422
0.1452272
0.1453239
0.1454347
0.1455628
0.145712
0.1458873
0.1460947
0.1463422
0.1466402
0.1470022
0.1474461
0.1479939
0.1486653
0.1494341
0.1499963
0.148471
0.1416826
0.1051008
0.1427524
0.1408661
0.1412182
0.1417368
0.1422125
0.1425978
0.1428987
0.1431325
0.1433149
0.1434587
0.143574
0.1436682
0.1437466
0.1438134
0.1438714
0.1439229
0.1439694
0.1440123
0.1440526
0.144091
0.1441283
0.144165
0.1442017
0.1442388
0.144277
0.1443168
0.1443587
0.1444036
0.144452
0.144505
0.1445637
0.1446293
0.1447033
0.1447877
0.1448846
0.1449968
0.145128
0.1452826
0.1454662
0.1456862
0.1459524
0.1462777
0.1466792
0.1471786
0.1477958
0.1485066
0.1490143
0.1474688
0.1407893
0.1052743
0.1523039
0.1423317
0.1410144
0.1414004
0.1418372
0.1421972
0.1424822
0.1427045
0.1428755
0.1430078
0.1431121
0.1431959
0.1432647
0.1433226
0.1433724
0.1434161
0.1434554
0.1434915
0.1435251
0.1435572
0.1435882
0.1436187
0.1436491
0.14368
0.1437118
0.1437448
0.1437798
0.1438172
0.1438577
0.1439021
0.1439512
0.1440063
0.1440686
0.1441397
0.1442215
0.1443166
0.144428
0.1445597
0.1447166
0.1449055
0.1451352
0.1454174
0.1457681
0.1462075
0.1467544
0.1473854
0.1478107
0.1462176
0.1396483
0.1055139
0.1443361
0.140889
0.1406976
0.1409939
0.1413563
0.1416821
0.1419547
0.1421651
0.1423232
0.1424422
0.1425335
0.1426055
0.1426636
0.1427117
0.1427527
0.1427883
0.1428201
0.1428491
0.142876
0.1429016
0.1429263
0.1429505
0.1429747
0.1429992
0.1430244
0.1430507
0.1430785
0.1431083
0.1431406
0.1431761
0.1432155
0.1432596
0.1433096
0.1433668
0.1434328
0.1435096
0.1435999
0.1437069
0.143835
0.1439897
0.1441786
0.144412
0.1447037
0.1450713
0.1455305
0.1460558
0.1463613
0.1446725
0.1381725
0.1058627
0.1581954
0.1419128
0.1406481
0.140677
0.1409303
0.1411851
0.141364
0.1415414
0.1416786
0.1417806
0.1418566
0.141915
0.1419614
0.1419992
0.1420309
0.1420583
0.1420825
0.1421045
0.1421247
0.1421439
0.1421624
0.1421804
0.1421985
0.1422168
0.1422356
0.1422552
0.142276
0.1422983
0.1423225
0.1423491
0.1423786
0.1424118
0.1424495
0.1424927
0.1425426
0.1426009
0.1426696
0.1427512
0.1428492
0.1429682
0.1431141
0.1432951
0.1435223
0.1438094
0.1441667
0.1445623
0.1447097
0.1428568
0.1363109
0.1064128
0.1484903
0.1424628
0.1427452
0.1428102
0.1429157
0.1427208
0.1409612
0.1407242
0.1407989
0.1408761
0.1409344
0.1409785
0.141013
0.1410408
0.1410639
0.1410836
0.1411009
0.1411164
0.1411306
0.141144
0.1411569
0.1411695
0.141182
0.1411947
0.1412077
0.1412214
0.1412358
0.1412513
0.1412682
0.1412868
0.1413074
0.1413307
0.1413571
0.1413875
0.1414227
0.1414639
0.1415126
0.1415707
0.1416408
0.1417262
0.1418314
0.1419625
0.1421277
0.1423361
0.1425919
0.142858
0.1428607
0.1411128
0.1358057
0.107544
0.1660579
0.1479076
0.1547258
0.1557838
0.155809
0.1541152
0.1428827
0.1408532
0.1408072
0.1408669
0.1409089
0.1409405
0.1409652
0.140985
0.1410012
0.141015
0.141027
0.1410376
0.1410473
0.1410564
0.1410651
0.1410736
0.1410821
0.1410906
0.1410994
0.1411086
0.1411183
0.1411287
0.1411401
0.1411527
0.1411666
0.1411824
0.1412004
0.141221
0.141245
0.1412733
0.1413067
0.1413468
0.1413953
0.1414547
0.1415282
0.1416204
0.1417367
0.141883
0.1420583
0.1422105
0.1421277
0.1417407
0.1446345
0.1082298
0.1505315
0.1443812
0.1406268
0.1350532
0.1354322
0.1352361
0.1335205
0.1325854
0.1323551
0.1323548
0.1323944
0.1324309
0.1324598
0.1324827
0.1325015
0.1325174
0.1325314
0.1325439
0.1325554
0.1325662
0.1325764
0.1325862
0.1325958
0.1326052
0.1326146
0.132624
0.1326338
0.1326441
0.132655
0.1326669
0.1326801
0.1326951
0.1327122
0.1327321
0.1327555
0.1327832
0.1328165
0.1328567
0.1329058
0.1329663
0.133041
0.1331334
0.1332453
0.1333714
0.1334797
0.1334524
0.1329722
0.1315799
0.1286919
0.1112977
0.1436456
0.1363555
0.1341245
0.1330757
0.1335195
0.1335571
0.1328843
0.1325399
0.1324989
0.1325504
0.1326085
0.1326561
0.1326934
0.1327233
0.1327481
0.1327693
0.1327881
0.1328051
0.1328207
0.1328354
0.1328494
0.1328628
0.1328759
0.1328888
0.1329016
0.1329145
0.1329278
0.1329416
0.1329565
0.1329726
0.1329904
0.1330106
0.1330336
0.1330604
0.1330918
0.133129
0.1331735
0.1332272
0.1332927
0.1333729
0.133472
0.1335944
0.1337436
0.1339153
0.1340768
0.1340953
0.1335251
0.1311466
0.124441
0.1089197
0.1363973
0.1336389
0.1327016
0.1325967
0.1329055
0.1331131
0.1331214
0.1331672
0.133259
0.1333521
0.1334291
0.1334898
0.1335381
0.1335776
0.1336109
0.1336399
0.1336658
0.1336894
0.1337113
0.133732
0.1337517
0.1337706
0.133789
0.1338071
0.133825
0.1338431
0.1338616
0.1338809
0.1339014
0.1339236
0.1339483
0.133976
0.1340077
0.1340445
0.1340875
0.1341384
0.1341992
0.1342723
0.1343611
0.1344696
0.1346032
0.1347679
0.1349694
0.1352059
0.1354454
0.1355454
0.1349993
0.1323166
0.1244149
0.1066404
0.138078
0.1341403
0.1327574
0.1327656
0.1330981
0.1334057
0.133631
0.1338113
0.1339594
0.1340775
0.1341703
0.1342439
0.1343035
0.1343532
0.1343958
0.1344334
0.1344672
0.1344983
0.1345273
0.1345547
0.1345809
0.1346062
0.1346307
0.1346547
0.1346784
0.1347023
0.1347266
0.1347519
0.1347787
0.1348077
0.1348397
0.1348757
0.1349169
0.1349645
0.1350203
0.1350861
0.1351646
0.1352587
0.1353727
0.1355115
0.1356818
0.1358912
0.1361473
0.1364503
0.1367687
0.136954
0.1364716
0.133744
0.1254805
0.1053729
0.1388339
0.1345006
0.1330064
0.1330919
0.133491
0.1338574
0.1341458
0.1343682
0.1345403
0.1346743
0.13478
0.1348651
0.1349353
0.1349949
0.1350466
0.1350928
0.1351347
0.1351735
0.1352099
0.1352445
0.1352775
0.1353093
0.1353402
0.1353704
0.1354002
0.1354299
0.1354601
0.1354914
0.1355244
0.13556
0.1355993
0.1356435
0.1356939
0.1357523
0.1358204
0.1359009
0.1359965
0.1361111
0.1362493
0.1364171
0.1366222
0.1368734
0.1371796
0.1375422
0.1379293
0.1381868
0.1377611
0.1350177
0.1264951
0.1045475
0.1376905
0.1341684
0.1331427
0.1333897
0.1338532
0.1342559
0.1345698
0.1348105
0.1349964
0.1351422
0.1352588
0.1353542
0.1354341
0.1355029
0.1355635
0.135618
0.135668
0.1357146
0.1357586
0.1358004
0.1358404
0.135879
0.1359164
0.1359528
0.1359886
0.1360241
0.13606
0.136097
0.1361359
0.1361778
0.1362239
0.1362756
0.1363347
0.1364029
0.1364826
0.1365766
0.1366882
0.1368215
0.136982
0.1371761
0.1374123
0.1377004
0.1380498
0.1384623
0.1389045
0.139217
0.1388299
0.1360627
0.1273181
0.1039701
0.1340357
0.132966
0.1330989
0.1336179
0.1341421
0.1345685
0.1348974
0.13515
0.1353464
0.135502
0.1356281
0.1357327
0.1358217
0.1358991
0.1359681
0.1360309
0.1360889
0.1361433
0.1361948
0.1362441
0.1362914
0.1363369
0.1363808
0.1364235
0.1364652
0.1365063
0.1365476
0.1365898
0.1366341
0.1366815
0.1367337
0.1367922
0.1368589
0.1369361
0.1370262
0.1371323
0.1372582
0.1374083
0.1375884
0.1378056
0.1380687
0.1383879
0.1387732
0.1392256
0.1397103
0.1400622
0.1396982
0.1369014
0.1279718
0.1035447
0.1325981
0.132516
0.1331505
0.1338045
0.1343645
0.1348072
0.1351476
0.1354099
0.1356154
0.1357799
0.1359146
0.1360277
0.136125
0.1362108
0.1362879
0.1363587
0.1364247
0.136487
0.1365463
0.1366032
0.1366578
0.1367104
0.136761
0.1368099
0.1368574
0.1369039
0.1369501
0.1369971
0.137046
0.1370983
0.1371556
0.1372199
0.1372932
0.1373781
0.1374772
0.1375939
0.1377322
0.1378968
0.1380939
0.1383308
0.1386165
0.1389615
0.1393756
0.1398593
0.1403756
0.1407548
0.140403
0.1375753
0.128493
0.1032177
0.1323408
0.1324869
0.133252
0.1339538
0.1345339
0.1349894
0.1353399
0.1356113
0.1358252
0.1359978
0.1361405
0.1362616
0.1363669
0.1364605
0.1365456
0.1366244
0.1366984
0.1367687
0.136836
0.1369007
0.1369629
0.1370227
0.1370802
0.1371354
0.1371884
0.13724
0.1372907
0.1373418
0.1373945
0.1374507
0.1375122
0.1375811
0.1376599
0.1377511
0.1378578
0.1379834
0.1381323
0.1383093
0.1385207