/*--------------------------------*- C++ -*----------------------------------*\
| =========                 |                                                 |
| \\      /  F ield         | OpenFOAM: The Open Source CFD Toolbox           |
|  \\    /   O peration     | Version:  2506                                  |
|   \\  /    A nd           | Website:  www.openfoam.com                      |
|    \\/     M anipulation  |                                                 |
\*---------------------------------------------------------------------------*/
FoamFile
{
    version     2.0;
    format      ascii;
    arch        "LSB;label=32;scalar=64";
    class       volScalarField;
    location    "2000/air";
    object      qr;
}
// * * * * * * * * * * * * * * * * * * * * * * * * * * * * * * * * * * * * * //

dimensions      [1 0 -3 0 0 0 0];

internalField   uniform 0;

boundaryField
{
    maxY
    {
        type            calculated;
        value           uniform 0;
    }
    minX
    {
        type            calculated;
        value           uniform 0;
    }
    maxX
    {
        type            calculated;
        value           uniform 0;
    }
    minY
    {
        type            calculated;
        value           uniform 0;
    }
    maxZ
    {
        type            calculated;
        value           uniform 0;
    }
    air_to_solid
    {
        type            greyDiffusiveRadiationViewFactor;
        value           nonuniform List<scalar> 
1536
(
3.946317
3.706999
3.621264
3.584551
3.568672
3.615576
3.78461
3.490289
3.401355
3.362192
3.342773
3.387702
3.727288
3.430589
3.340631
3.300406
3.279841
3.323361
3.71874
3.421481
3.331055
3.290267
3.269049
3.311665
3.732675
3.435108
3.344752
3.303944
3.282537
3.325001
3.813017
3.518709
3.428911
3.388504
3.367604
3.410354
1.941412
4.576191
-101.7135
0.462035
-102.4774
0.4064651
-102.5576
0.3950994
-102.5711
0.4006755
-102.5453
0.4659819
-102.4373
-0.6188746
3.77309
-101.6613
-102.6799
-102.7619
-102.7756
-102.7499
-102.639
-2.090245
3.729604
-101.7404
-102.7608
-102.8439
-102.8579
-102.8321
-102.7203
-2.184494
3.72483
-101.7542
-102.7745
-102.8579
-102.8719
-102.8461
-102.7342
-2.219357
3.732452
-101.7291
-102.7493
-102.8323
-102.8461
-102.8204
-102.7086
-2.21972
3.796411
-101.6211
-102.6377
-102.7193
-102.7328
-102.7072
-102.5968
-2.140971
1.648129
0.1707239
0.1151169
0.1037505
0.1093504
0.1747234
2.999356
1.904211
1.871663
1.817734
1.809221
1.79704
1.795483
1.797939
1.802961
1.845644
1.874565
1.750765
5.191493
5.194335
3.745622
3.816233
3.564471
3.63552
3.523929
3.44999
3.591856
3.435253
3.404263
3.569601
3.396327
3.379147
3.593008
3.377378
3.399869
3.685309
3.422659
3.4904
0.9594657
0.5204549
5.164982
5.119971
3.531054
3.734489
3.478983
3.416109
3.437996
3.363212
3.370206
3.348248
3.316483
3.34468
3.308253
3.290056
3.364924
3.287916
3.30935
3.455547
3.331772
3.397527
0.480046
0.4069302
5.113917
5.107437
3.471565
3.718945
3.462795
3.35565
3.421809
3.346587
3.308688
3.331447
3.299156
3.282033
3.29075
3.271987
3.301063
3.269652
3.290373
3.388279
3.312425
3.375476
0.3932815
0.3696084
5.107281
5.112841
3.462479
3.725866
3.469409
3.346209
3.428333
3.35305
3.298697
3.337893
3.305493
3.271413
3.297031
3.278054
3.289652
3.275627
3.296062
3.374339
3.318061
3.380389
0.3656295
0.3656337
5.118603
5.162822
3.476218
3.781709
3.526595
3.359877
3.485618
3.410715
3.312393
3.395686
3.36358
3.284965
3.3552
3.336425
3.302955
3.334039
3.35455
3.387439
3.376711
3.439161
0.3715566
0.422383
5.191962
5.097057
3.559487
3.938646
3.733913
2.70403
1.598465
3.443951
3.694823
3.621789
1.565894
1.511933
3.396844
3.606949
3.575555
1.503415
1.491233
3.369905
3.567501
3.550003
1.489678
1.49215
3.388253
3.548117
3.569212
1.49718
1.539909
3.472043
3.590569
3.657158
0.4557464
1.56885
0.8294389
1.643359
0.492245
-102.4374
3.799762
-101.6215
-102.5965
0.4137349
-102.5462
-102.6381
-102.7081
0.3964651
-102.5713
-102.7196
-102.7334
0.3965062
-102.5567
-102.7332
-102.719
0.4389468
-102.4772
-102.7076
-102.6386
0.6638879
-102.8148
-102.5972
-2.047907
-103.3393
-102.6379
3.734349
-101.7292
-102.707
-102.7504
-102.7494
-102.8206
-102.7757
-102.8324
-102.8464
-102.7614
-102.8462
-102.8321
-102.6807
-102.8205
-102.7508
-103.3796
-102.7088
-2.168921
-103.4486
-102.7183
3.725045
-101.7542
-102.732
-102.8322
-102.7746
-102.8461
-102.858
-102.8579
-102.872
-102.8437
-102.8719
-102.8577
-102.7623
-102.8461
-102.7763
-103.46
-102.7342
-2.213646
-103.4741
-102.732
3.728117
-101.7403
-102.7182
-102.8461
-102.7607
-102.8321
-102.872
-102.8439
-102.8579
-102.8577
-102.8578
-102.8436
-102.7762
-102.8321
-102.7622
-103.4741
-102.7202
-2.224191
-103.4598
-102.7068
3.770062
-101.661
-102.6376
-102.8205
-102.6796
-102.7501
-102.8463
-102.7617
-102.7755
-102.832
-102.7753
-102.7611
-102.7506
-102.7497
-102.6803
-103.4484
-102.6386
-2.173138
-103.3792
-102.5961
4.511397
-101.7662
0.2009552
-102.5199
-102.7078
-102.5599
0.1223911
-102.6287
-102.733
-102.6401
0.1051141
-102.6538
-102.7186
-102.6537
0.105172
-102.6392
-102.6382
-102.6278
0.1476666
-102.5597
-103.3387
-102.5197
-0.786496
0.5076964
-102.8674
3.793888
3.858346
3.906773
2.942184
5.364024
2.956419
5.274743
3.600482
3.676934
3.631203
2.852167
2.826172
3.531672
3.609772
3.543534
2.782782
2.775436
3.498566
3.578201
3.505319
2.762892
2.760875
3.489954
3.571295
3.487738
2.764813
2.772109
3.565775
3.647049
3.53361
2.831192
2.864577
2.034806
2.242575
3.638321
3.661815
3.761663
5.139445
5.1177
3.434755
3.458938
3.46619
3.364881
3.389329
3.376975
3.330308
3.355061
3.337525
3.319373
3.344488
3.317749
3.395297
3.420751
3.362314
2.143098
2.114361
3.598505
3.603134
3.722816
5.086011
5.082122
3.394341
3.399016
3.425946
3.323476
3.328342
3.335817
3.287934
3.292995
3.295398
3.275998
3.281269
3.27463
3.350252
3.355895
3.317859
2.065409
2.057035
3.594968
3.594153
3.719594
5.078804
5.079577
3.390555
3.389821
3.42223
3.31932
3.318629
3.331763
3.283325
3.282702
3.290915
3.270816
3.270292
3.269606
3.344246
3.343817
3.312115
2.044163
2.043081
3.618855
3.608113
3.743272
5.091432
5.101294
3.414215
3.403435
3.445867
3.343248
3.33234
3.355637
3.30733
3.296349
3.314917
3.294705
3.283709
3.293541
3.368366
3.357256
3.336054
2.053502
2.064299
3.732951
3.689973
3.854159
5.167966
5.208168
3.532635
3.48724
3.56394
3.462066
3.41659
3.474383
3.42665
3.381028
3.434067
3.414841
3.368875
3.413489
3.487972
3.442535
3.456183
2.138111
2.178234
2.795896
2.928286
2.816658
2.789522
2.742338
2.73359
2.71637
2.712626
2.710816
2.715996
2.76807
2.798288
-102.1995
-102.2104
0.8101012
-101.535
3.985988
-102.5396
-102.5076
0.4400764
-102.5092
-102.5972
-102.565
0.4017201
-102.5898
-102.6011
-102.5689
0.3944232
-102.6033
-102.5616
-102.5294
0.4081073
-102.5775
-102.4319
-102.3974
0.4969804
-102.4687
-102.3727
-102.3427
-101.6911
3.754584
-102.7418
-102.7109
-102.7106
-102.8005
-102.7693
-102.7931
-102.8046
-102.7734
-102.8068
-102.7651
-102.7339
-102.7811
-102.6334
-102.6027
-102.6698
-102.4295
-102.4222
-101.7477
3.727023
-102.7996
-102.7922
-102.7681
-102.8589
-102.8514
-102.8513
-102.8631
-102.8557
-102.8653
-102.8234
-102.816
-102.8396
-102.6911
-102.6837
-102.7277
-102.4339
-102.436
-101.7522
3.72503
-102.804
-102.806
-102.7725
-102.8633
-102.8654
-102.8558
-102.8676
-102.8697
-102.8698
-102.8279
-102.83
-102.844
-102.6956
-102.6977
-102.7321
-102.3949
-102.4108
-101.7132
3.739859
-102.7645
-102.7807
-102.7332
-102.8234
-102.8398
-102.816
-102.8276
-102.844
-102.8298
-102.788
-102.8043
-102.8041
-102.6559
-102.6721
-102.6924
-102.2527
-102.3019
-101.5732
3.838556
-102.6154
-102.6686
-102.5848
-102.6732
-102.7266
-102.6659
-102.6772
-102.7306
-102.6794
-102.6377
-102.6912
-102.6537
-102.5083
-102.5609
-102.544
2.886756
2.929299
3.049017
2.164001
2.316383
2.082545
1.961313
2.127987
2.792926
2.806909
2.049474
1.84752
2.024881
1.994359
1.830014
2.006986
2.765922
2.769999
1.985555
1.803475
1.979544
1.972678
1.799598
1.975436
2.76116
2.760132
1.970956
1.794891
1.970237
1.973122
1.795541
1.970791
2.803538
2.784508
1.978095
1.811586
1.986723
2.020883
1.825307
2.000478
2.633021
2.864579
2.049886
1.895054
2.084192
1.8704
1.772927
2.084847
5.169753
5.211305
5.225556
5.269925
5.373317
5.30546
5.232249
5.343293
3.722103
3.794721
3.670785
3.73777
3.857729
3.694295
3.662626
3.609957
3.617875
3.576669
3.653602
3.558159
3.538768
3.569788
3.492713
3.514805
3.496191
3.468659
3.521693
3.600156
3.513014
3.469542
3.481488
3.423265
3.459468
3.450666
3.413137
3.492994
3.573054
3.489111
3.435897
3.442822
3.38929
3.43013
3.426028
3.383395
3.497173
3.578894
3.511044
3.426409
3.424417
3.379223
3.433437
3.447223
3.386131
3.600544
3.679944
3.5955
3.502602
3.469928
3.455639
3.537665
3.536002
3.491219
2.181
2.226008
1.120961
0.6606291
1.212279
1.146221
0.5726216
1.192351
5.092475
5.102548
5.275712
5.144009
5.254401
5.229854
5.129504
5.239616
3.561063
3.584835
3.507088
3.621773
3.745466
3.610522
3.544392
3.490333
3.533077
3.410572
3.434818
3.39179
3.417885
3.449369
3.406458
3.393628
3.374773
3.38214
3.35463
3.379146
3.345614
3.347718
3.359877
3.336019
3.337395
3.328309
3.325635
3.324211
3.349051
3.319745
3.312856
3.320141
3.3009
3.306685
3.302143
3.294666
3.326066
3.351267
3.339626
3.301623
3.300067
3.289405
3.308244
3.321718
3.295961
3.430837
3.456419
3.429668
3.377117
3.344269
3.364466
3.412431
3.410843
3.399542
2.076997
2.092828
1.106657
0.4488418
1.076276
1.035914
0.4249582
1.053187
5.078923
5.079933
5.223636
5.110342
5.219935
5.216913
5.108358
5.21787
3.521017
3.525663
3.466918
3.595784
3.72021
3.594426
3.518284
3.464184
3.516905
3.369923
3.374636
3.350886
3.39158
3.423206
3.390162
3.367127
3.348057
3.365687
3.312984
3.31789
3.30373
3.320567
3.332938
3.319043
3.310035
3.300742
3.308482
3.281591
3.286695
3.276875
3.284862
3.292361
3.283213
3.278476
3.273714
3.27679
3.282424
3.287752
3.295659
3.272741
3.271415
3.270933
3.279114
3.292283
3.27726
3.384883
3.390731
3.382041
3.346681
3.314396
3.344628
3.381142
3.377949
3.378961
2.046808
2.051006
1.022989
0.3830363
1.013404
1.00112
0.3753162
1.006286
5.085191
5.081531
5.216772
5.107892
5.217448
5.222663
5.109569
5.219235
3.517391
3.516605
3.463246
3.597152
3.721794
3.601248
3.519543
3.465374
3.523607
3.366053
3.365322
3.346929
3.392648
3.424328
3.396649
3.368147
3.349028
3.372159
3.308722
3.308037
3.299362
3.321417
3.333854
3.325463
3.310813
3.301444
3.314864
3.276849
3.27624
3.271996
3.285384
3.292978
3.289432
3.278895
3.274025
3.282937
3.277073
3.276573
3.290124
3.272803
3.271606
3.276809
3.279041
3.292075
3.283035
3.378446
3.37806
3.374544
3.346205
3.314056
3.350253
3.380404
3.376382
3.384487
2.047039
2.043862
0.9976267
0.3633943
0.9958187
0.9987191
0.3632151
0.9960025
5.137813
5.116248
5.228616
5.127854
5.238124
5.273764
5.142093
5.252671
3.541201
3.530444
3.486981
3.634911
3.759105
3.657936
3.557337
3.503175
3.580591
3.389779
3.37896
3.370731
3.430462
3.462091
3.454039
3.40607
3.38707
3.429678
3.332688
3.321748
3.323351
3.359654
3.372006
3.383362
3.349125
3.339816
3.372861
3.300843
3.289845
3.295969
3.32384
3.331399
3.347676
3.317376
3.312521
3.341248
3.300917
3.289918
3.313961
3.311273
3.310096
3.335241
3.317489
3.330543
3.341475
3.402745
3.391559
3.398599
3.385046
3.352686
3.409047
3.41949
3.415323
3.443462
2.104855
2.08091
1.004866
0.3819886
1.01548
1.056079
0.3984336
1.03205
5.30242
5.260559
5.30332
5.228067
5.33937
5.131346
5.249994
5.353728
3.657326
3.613137
3.604374
3.787873
3.902319
3.847958
3.715462
3.663799
3.783502
2.852336
2.896342
2.754132
1.856911
2.125896
2.063664
1.655599
2.104194
3.508366
3.462909
3.489428
3.592835
3.623895
3.66427
3.568662
3.549768
3.64042
2.753813
2.769059
2.030312
1.541735
2.005424
1.974252
1.52422
1.987215
3.45159
3.406099
3.442363
3.522434
3.534733
3.594836
3.511986
3.502807
3.584559
2.721042
2.726675
1.96509
1.497667
1.958698
1.950988
1.49379
1.954181
3.420356
3.374654
3.415695
3.487249
3.494575
3.560354
3.481064
3.476527
3.554359
2.709178
2.710064
1.948803
1.48909
1.947592
1.949402
1.489745
1.947623
3.421186
3.375165
3.434246
3.475927
3.474456
3.549722
3.482354
3.495381
3.556243
2.742866
2.726172
1.953791
1.505817
1.961801
1.994628
1.519554
1.974907
3.521507
3.47671
3.515633
3.548219
3.517051
3.620739
3.581532
3.572372
3.652203
1.95415
2.53164
2.186677
2.790251
1.089479
0.5000836
1.128821
2.022912
1.595499
2.055149
0.9969813
1.758821
0.5724344
1.638145
1.135
2.043201
-102.4024
-102.3755
0.5518205
-102.4686
-102.2517
-101.5726
3.843476
-102.3023
-102.4733
-102.5425
-102.5262
-102.5622
-102.5301
0.4244278
-102.5784
-102.6142
-102.5836
-102.6689
-102.637
-102.6532
-102.6919
-102.6016
-102.5694
0.3985639
-102.6035
-102.672
-102.6647
-102.727
-102.6764
-102.6784
-102.7314
-102.5964
-102.5642
0.3947305
-102.589
-102.676
-102.6782
-102.731
-102.6714
-102.6639
-102.7264
-102.5392
-102.5071
0.4203753
-102.5092
-102.6365
-102.6525
-102.6916
-102.6141
-102.5839
-102.669
-102.5086
-102.432
0.522431
-103.1775
-1.746019
-102.5072
-102.5429
-102.5613
-102.5989
-103.2844
-1.981075
-102.6535
-102.5974
-102.5672
-102.6684
-102.395
-101.7133
3.742152
-102.4109
-102.6199
-102.691
-102.6358
-102.765
-102.734
-102.7814
-102.7647
-102.7333
-102.7808
-102.788
-102.8044
-102.8041
-102.805
-102.7738
-102.8069
-102.8236
-102.8161
-102.8399
-102.8281
-102.8301
-102.8444
-102.8
-102.7688
-102.7926
-102.8278
-102.8299
-102.8441
-102.8232
-102.8158
-102.8395
-102.7423
-102.7112
-102.7116
-102.7881
-102.8042
-102.8044
-102.7653
-102.7346
-102.7816
-102.7248
-102.6944
-103.4099
-2.123266
-102.6561
-102.6926
-102.6722
-102.7475
-103.4325
-2.149027
-102.7636
-102.6543
-102.6471
-102.7256
-102.4339
-101.7522
3.725673
-102.436
-102.6588
-102.73
-102.6608
-102.823
-102.8156
-102.8396
-102.804
-102.7725
-102.806
-102.8275
-102.844
-102.8295
-102.8634
-102.856
-102.8654
-102.8634
-102.8558
-102.8654
-102.8679
-102.8699
-102.87
-102.8586
-102.8511
-102.8511
-102.8677
-102.8698
-102.8697
-102.8631
-102.8556
-102.8651
-102.8005
-102.7931
-102.7697
-102.8279
-102.8441
-102.83
-102.8051
-102.7742
-102.8071
-102.7825
-102.7751
-103.4675
-2.196601
-102.6956
-102.7322
-102.6977
-102.787
-103.472
-2.206158
-102.7891
-102.6588
-102.6608
-102.73
-102.4294
-101.7477
3.725955
-102.4221
-102.6543
-102.7255
-102.647
-102.8274
-102.8295
-102.844
-102.7995
-102.768
-102.7921
-102.8229
-102.8395
-102.8156
-102.8679
-102.87
-102.8699
-102.8588
-102.8513
-102.8514
-102.8633
-102.8654
-102.8559
-102.863
-102.8651
-102.8556
-102.8631
-102.8652
-102.8556
-102.8585
-102.8511
-102.851
-102.805
-102.8071
-102.7742
-102.8233
-102.8395
-102.8159
-102.8005
-102.7696
-102.7931
-102.787
-102.7891
-103.4719
-2.223271
-102.691
-102.7276
-102.6836
-102.7824
-103.4674
-2.225056
-102.7749
-102.6197
-102.6357
-102.6909
-102.3725
-101.6909
3.751911
-102.3424
-102.5972
-102.6682
-102.5669
-102.7878
-102.804
-102.8043
-102.7416
-102.7104
-102.7107
-102.7648
-102.7812
-102.7338
-102.8279
-102.8443
-102.8299
-102.8003
-102.7929
-102.7691
-102.8048
-102.8067
-102.7735
-102.823
-102.8394
-102.8156
-102.8044
-102.8066
-102.7732
-102.7998
-102.7924
-102.7686
-102.7652
-102.7815
-102.7344
-102.7648
-102.7809
-102.7336
-102.7421
-102.7114
-102.7109
-102.7472
-102.7634
-103.4322
-2.210752
-102.6331
-102.6695
-102.6024
-102.7245
-103.4095
-2.195701
-102.694
-102.4744
-102.5258
-102.5437
-102.2138
-101.5451
3.96941
-102.2892
0.5178423
-102.4186
-102.485
-102.4577
0.2604663
-102.6382
-102.6915
-102.6544
-102.556
-102.5256
-102.5901
0.1487504
-102.5786
-102.5948
-102.6126
0.1330915
-102.6776
-102.7311
-102.6796
-102.6136
-102.6062
-102.6475
0.1103694
-102.618
-102.6199
-102.6519
0.1072125
-102.6726
-102.726
-102.6651
-102.6175
-102.6197
-102.6514
0.1030775
-102.6128
-102.6053
-102.6467
0.1033899
-102.6152
-102.6686
-102.585
-102.578
-102.5939
-102.6118
0.1167939
-102.5556
-102.5255
-102.5896
0.1290771
-102.5997
-102.653
-103.2848
-2.085828
-102.448
-102.485
-102.4795
0.2056504
-102.5229
-103.1875
-1.87475
-102.5108
0.2301804
)
;
        qro             uniform 0;
    }
    air_to_floor
    {
        type            greyDiffusiveRadiationViewFactor;
        value           nonuniform List<scalar> 
900
(
38.426
41.8465
44.94355
47.72732
50.20759
52.39544
54.30387
55.94682
57.36474
58.55135
59.49754
60.22697
60.77979
61.154
61.3361
61.31308
61.09307
60.6815
60.07001
59.25511
58.2143
56.93163
55.40516
53.63431
51.5987
49.28629
46.68578
43.78716
40.58145
37.05909
41.9512
45.31086
48.34246
51.05801
53.46919
55.58891
57.43162
59.01245
60.37235
61.50684
62.40974
63.10514
63.63059
63.98519
64.15591
64.13254
63.92296
63.52972
62.94343
62.15956
61.15835
59.924
58.45118
56.73703
54.76201
52.51294
49.97703
47.14248
43.99849
40.53368
45.1579
48.45253
51.41498
54.05904
56.39824
58.44727
60.22206
61.73883
63.03912
64.11993
64.97819
65.6384
66.13546
66.47001
66.6296
66.6062
66.40646
66.03196
65.47174
64.72005
63.75963
62.57494
61.15732
59.50166
57.58939
55.4062
52.93781
50.1707
47.09227
43.68934
48.05571
51.28296
54.17435
56.74542
59.01143
60.98881
62.69493
64.14747
65.38734
66.41415
67.22741
67.85187
68.32031
68.63478
68.78336
68.76002
68.56991
68.21413
67.68014
66.96107
66.04172
64.90685
63.54495
61.94802
60.09919
57.98285
55.58326
52.88523
49.87441
46.53591
50.65367
53.81304
56.63328
59.13159
61.32491
63.2313
64.86949
66.25884
67.43889
68.41252
69.18134
69.77033
70.21053
70.50533
70.64358
70.61995
70.43919
70.10163
69.59343
68.90662
68.02767
66.94172
65.63467
64.09551
62.30937
60.25927
57.92808
55.29903
52.3561
49.08272
52.96182
56.05464
58.80541
61.23292
63.35566
65.19324
66.76579
68.094
69.21622
70.13854
70.86437
71.41895
71.83186
72.10778
72.23637
72.21212
72.04044
71.72021
71.23681
70.58115
69.74106
68.70208
67.44776
65.96429
64.23866
62.25271
59.98795
57.42611
54.54958
51.34022
54.99161
58.02069
60.70519
63.06532
65.12104
66.89341
68.40385
69.67415
70.74195
71.61558
72.30096
72.82263
73.20977
73.46781
73.58746
73.56241
73.39928
73.09535
72.63524
72.00889
71.20539
70.21059
69.0057
67.5747
65.90617
63.98093
61.77926
59.28144
56.46839
53.3205
56.75514
59.72449
62.34707
64.64465
66.63836
68.35037
69.80332
71.02
72.03771
72.86618
73.51411
74.0053
74.36866
74.61041
74.72146
74.69562
74.54041
74.25147
73.81272
73.21327
72.4434
71.48915
70.32962
68.94693
67.33108
65.46188
63.3185
60.88015
58.1266
55.03652
58.27968
61.19291
63.7575
65.99613
67.93131
69.58649
70.98557
72.15214
73.12332
73.9096
74.52262
74.98541
75.32668
75.55358
75.65642
75.62985
75.48201
75.20709
74.78827
74.21397
73.47552
72.55894
71.44166
70.10417
68.53788
66.72175
64.63368
62.25158
59.55377
56.51805
59.56236
62.4256
64.93813
67.12409
69.00711
70.61168
71.96257
73.08421
74.01369
74.7624
75.34408
75.78153
76.10306
76.31688
76.41215
76.38503
76.2436
75.9813
75.58024
75.02829
74.31788
73.4349
72.35555
71.05856
69.5365
67.76747
65.72858
63.3967
60.74907
57.76225
60.59358
63.42225
65.89254
68.03487
69.8745
71.43681
72.7475
73.83166
74.72609
75.44324
75.99831
76.41431
76.71927
76.9219
77.0108
76.98322
76.84695
76.59528
76.20918
75.67612
74.9892
74.13417
73.08619
71.82279
70.33735
68.60739
66.60923
64.31886
61.71256
58.76591
94.31136
64.19447
66.63755
68.74552
70.55042
72.07877
73.3569
74.41067
75.27665
75.9686
76.50161
76.90025
77.19193
77.38529
77.4691
77.44131
77.30934
77.06624
76.69221
76.1742
75.50586
74.67342
73.65092
72.41563
70.96037
69.26181
67.29618
65.03876
62.46481
59.54874
61.99661
64.7827
67.19462
69.27465
71.05185
72.55322
73.80564
74.83545
75.67902
76.35111
76.86682
77.25186
77.53349
77.71941
77.7991
77.771
77.6423
77.40593
77.04166
76.53564
75.88202
75.06776
74.06746
72.86338
71.44076
69.76838
67.82963
65.59856
63.04918
60.15118
95.26669
65.15746
67.56425
69.62591
71.38373
72.86625
74.10069
75.11385
75.94189
76.60033
77.10403
77.4794
77.75388
77.93452
78.01126
77.98299
77.85656
77.62487
77.26753
76.77003
76.12697
75.32654
74.34963
73.21077
71.92202
70.27607
35.19136
32.9791
30.44201
27.52922
95.45686
65.35141
67.75039
69.80189
71.54962
73.02244
74.2477
75.25214
76.07186
76.72305
77.22056
77.59077
77.86152
78.03946
78.11472
78.08635
77.96108
77.73183
77.37806
76.88492
76.24736
75.45401
74.48683
73.36587
72.09503
70.45952
35.38541
33.18413
30.66396
27.79515
95.45453
65.35037
67.74968
69.80124
71.54899
73.02179
74.24702
75.25144
76.07114
76.7223
77.21976
77.59
77.86073
78.03865
78.11389
78.0855
77.96021
77.73094
77.37716
76.88398
76.24641
75.45309
74.48622
73.36647
72.09638
70.46101
35.38696
33.18594
30.66769
27.80645
95.24705
65.15244
67.56199
69.62396
71.3818
72.86431
74.09875
75.11188
75.93986
76.59816
77.10128
77.47712
77.75161
77.93218
78.00887
77.98054
77.85405
77.62234
77.26496
76.76736
76.1243
75.3242
74.34987
73.22207
71.94332
70.29874
35.21504
33.004
30.4758
27.60497
94.85435
64.76372
67.19
69.27137
71.04863
72.54995
73.80232
74.83208
75.67552
76.34649
76.85404
77.24713
77.52974
77.71563
77.79523
77.76705
77.63827
77.40184
77.0375
76.53135
75.87779
75.06495
74.07633
72.93229
71.63638
69.97418
34.8721
32.6422
30.09512
27.20585
61.3896
64.19469
66.63315
68.74091
70.54571
72.07396
73.35199
74.40563
75.27098
75.95418
76.35343
76.88571
77.18601
77.37984
77.46358
77.43568
77.30361
77.06043
76.68626
76.16809
75.49979
74.66876
73.65793
72.4827
71.15417
69.46582
34.33689
32.08044
29.50694
26.59211
60.59287
63.41545
65.88501
68.02713
69.86656
71.42868
72.73917
73.82312
74.71731
75.43323
75.98008
76.40407
76.71003
76.91264
77.00145
76.97378
76.83744
76.58571
76.19948
75.66628
74.97931
74.12461
73.07924
71.82697
70.35167
68.6232
66.62611
64.336
61.72991
58.78371
59.5522
62.41479
64.92696
67.1126
68.9953
70.59954
71.95012
73.07146
74.00067
74.74907
75.33005
75.76781
76.08928
76.30298
76.39814
76.37093
76.22945
75.96713
75.56601
75.01402
74.3036
73.42071
72.34175
71.04623
69.52518
67.75652
65.71793
63.38612
60.73775
57.75241
58.26578
61.17855
63.74268
65.98084
67.91556
69.57028
70.9689
72.13504
73.10582
73.89177
74.50446
74.96703
75.30812
75.5349
75.63763
75.61099
75.46312
75.18819
74.76936
74.19508
73.45671
72.54028
71.42322
70.0861
68.52019
66.70442
64.61647
62.23232
59.52316
56.49947
56.73722
59.70596
62.32794
64.62489
66.61797
68.32935
69.78169
70.99778
72.01497
72.84299
73.49052
73.98137
74.34449
74.5861
74.69702
74.67111
74.51593
74.22701
73.78834
73.18903
72.41933
71.46533
70.30611
68.92382
67.30844
65.43966
63.29552
60.84457
57.96534
55.00075
54.96872
57.997
60.68068
63.03999
65.09489
66.86643
68.37607
69.64559
70.7127
71.58574
72.27058
72.7918
73.17861
73.43648
73.556
73.5309
73.36783
73.06399
72.60406
71.97796
71.17478
70.18037
68.97595
67.54552
65.87764
63.95307
61.75186
59.25232
56.42826
53.29272
52.934
56.02582
58.77559
61.20208
63.32382
65.16038
66.73195
68.05921
69.18058
70.10217
70.82735
71.38136
71.79388
72.06958
72.19806
72.17378
72.00216
71.68209
71.19896
70.54367
69.70404
68.6656
67.4119
65.92915
64.20435
62.21928
59.95541
57.39424
54.51759
51.31032
50.62103
53.77922
56.59828
59.09539
61.28753
63.19273
64.82976
66.21801
67.39708
68.36985
69.1379
69.72623
70.16598
70.46053
70.59865
70.57501
70.39434
70.057
69.54917
68.86283
67.98446
66.8992
65.5929
64.05462
62.26946
60.2204
57.89031
55.26236
52.3205
49.04839
48.01841
51.24432
54.13435
56.70406
58.96873
60.94477
62.64958
64.10087
65.33965
66.36548
67.17788
67.8016
68.26953
68.58371
68.73217
68.70883
68.51883
68.16333
67.62978
66.91129
65.99263
64.85857
63.49754
61.90164
60.05394
57.93879
55.54044
52.84369
49.83418
46.49702
45.11615
48.40928
51.37022
54.01278
56.35049
58.39804
60.17139
61.68679
62.98589
64.06562
64.92293
65.58234
66.07884
66.41307
66.57254
66.54914
66.34955
65.97537
65.41565
64.66463
63.70501
62.52123
61.10459
59.45009
57.53907
55.35721
52.8902
50.12452
47.04753
43.64609
41.90524
45.26324
48.29321
51.00712
53.41668
55.5348
57.37596
58.95534
60.31395
61.44729
62.34916
63.04371
63.56857
63.92282
64.09341
64.07004
63.86063
63.46776
62.88203
62.0989
61.09857
59.86523
58.39351
56.6806
54.70695
52.45933
49.92492
47.09192
43.94951
40.4863
38.37607
41.79478
44.89011
47.67211
50.15067
52.33681
54.24359
55.88501
57.30157
58.48694
59.43206
60.16061
60.7128
61.08664
61.2686
61.24559
61.02578
60.61461
60.00373
59.18961
58.14977
56.86819
55.3429
53.57338
51.53923
49.22837
46.62947
43.73251
40.5285
37.00786
)
;
        qro             uniform 0;
    }
}


// ************************************************************************* //
