/*--------------------------------*- C++ -*----------------------------------*\
| =========                 |                                                 |
| \\      /  F ield         | OpenFOAM: The Open Source CFD Toolbox           |
|  \\    /   O peration     | Version:  2506                                  |
|   \\  /    A nd           | Website:  www.openfoam.com                      |
|    \\/     M anipulation  |                                                 |
\*---------------------------------------------------------------------------*/
FoamFile
{
    version     2.0;
    format      ascii;
    arch        "LSB;label=32;scalar=64";
    class       volVectorField;
    location    "2000/air";
    object      U;
}
// * * * * * * * * * * * * * * * * * * * * * * * * * * * * * * * * * * * * * //

dimensions      [0 1 -1 0 0 0 0];

internalField   nonuniform List<vector> 
33752
(
(-0.05817374 -0.06453974 -0.03836157)
(-0.03656721 -0.07920823 -0.03455651)
(-0.02548572 -0.08938121 -0.03160446)
(-0.01855354 -0.09620333 -0.0296585)
(-0.01344721 -0.1006971 -0.02832485)
(-0.009447294 -0.1036532 -0.02738184)
(-0.006163211 -0.1055774 -0.02670141)
(-0.003378617 -0.106794 -0.02619914)
(-0.0009770687 -0.1075288 -0.02581919)
(0.001130002 -0.1079542 -0.0255158)
(0.002979595 -0.1081827 -0.02527729)
(0.004632959 -0.1082998 -0.02510239)
(0.006118638 -0.1083796 -0.02498521)
(0.007476281 -0.1084787 -0.02492273)
(0.008751372 -0.108635 -0.02491432)
(0.009993873 -0.1088683 -0.02496017)
(0.01125636 -0.1091792 -0.02506119)
(0.01259219 -0.1095491 -0.02521848)
(0.01405324 -0.1099404 -0.02543394)
(0.01568931 -0.1102967 -0.02571093)
(0.01754868 -0.1105417 -0.02605562)
(0.01968203 -0.1105774 -0.02647902)
(0.02214918 -0.1102774 -0.02699932)
(0.02503232 -0.1094753 -0.02764637)
(0.02845891 -0.1079414 -0.02846844)
(0.03264909 -0.1053398 -0.02954487)
(0.03799599 -0.1011442 -0.03100309)
(0.04522927 -0.0945212 -0.03307186)
(0.05669833 -0.08435422 -0.0361798)
(0.07922095 -0.06935799 -0.04019847)
(-0.07301101 -0.043446 -0.03458933)
(-0.04604828 -0.0528025 -0.02936839)
(-0.03142058 -0.0607496 -0.02592039)
(-0.02221454 -0.06665979 -0.02384842)
(-0.01563764 -0.07086649 -0.02250811)
(-0.01068371 -0.0737863 -0.02160729)
(-0.006772707 -0.0757555 -0.02098286)
(-0.003575293 -0.07702697 -0.02053601)
(-0.0009053016 -0.07779399 -0.02020321)
(0.001359807 -0.07820367 -0.01993928)
(0.003270798 -0.07837288 -0.0197321)
(0.004908161 -0.07841022 -0.01958041)
(0.006319633 -0.07839839 -0.01947795)
(0.007560655 -0.07840019 -0.01942218)
(0.008692778 -0.07845841 -0.01941222)
(0.009782496 -0.07859514 -0.01944838)
(0.01089986 -0.07881084 -0.0195312)
(0.01211532 -0.07908404 -0.01966152)
(0.01349763 -0.07937217 -0.01984074)
(0.0151126 -0.07961219 -0.02007174)
(0.01702524 -0.07972166 -0.02036042)
(0.01930511 -0.07959764 -0.02071766)
(0.02203814 -0.07911412 -0.02116263)
(0.02534615 -0.0781143 -0.02172766)
(0.02942301 -0.07639821 -0.02246818)
(0.03460341 -0.07370184 -0.02348012)
(0.04147442 -0.06967083 -0.02492685)
(0.05105954 -0.06385692 -0.02711193)
(0.06617576 -0.05587279 -0.03071875)
(0.0941705 -0.04629073 -0.0361829)
(-0.08324937 -0.03269301 -0.03169368)
(-0.05409089 -0.03850902 -0.0259784)
(-0.03722539 -0.04420348 -0.02213184)
(-0.02619915 -0.04885205 -0.01984932)
(-0.0182436 -0.05237267 -0.01840645)
(-0.01227892 -0.0549054 -0.01746028)
(-0.007638418 -0.05663356 -0.01681988)
(-0.003924858 -0.05773041 -0.01636824)
(-0.0009044216 -0.0583509 -0.01603237)
(0.001575204 -0.05862747 -0.01576142)
(0.003585959 -0.05867259 -0.01554473)
(0.005230268 -0.05859023 -0.01538219)
(0.006571579 -0.05846727 -0.01526836)
(0.007684182 -0.05837265 -0.01520118)
(0.008650563 -0.05835497 -0.01518083)
(0.00956056 -0.05844008 -0.01520787)
(0.01050824 -0.05862933 -0.0152828)
(0.01158824 -0.05889937 -0.01540564)
(0.01289173 -0.05920311 -0.01557666)
(0.01450546 -0.05947235 -0.01579745)
(0.01651362 -0.05961976 -0.01607291)
(0.01900596 -0.0595415 -0.01641402)
(0.02209203 -0.05911702 -0.01684152)
(0.02592672 -0.05820816 -0.0173924)
(0.03075196 -0.05665525 -0.01813123)
(0.03697308 -0.05427539 -0.01917162)
(0.04526708 -0.05086978 -0.02070673)
(0.05673626 -0.04627475 -0.02309181)
(0.07418423 -0.04053905 -0.0270957)
(0.1045217 -0.03455881 -0.03305849)
(-0.09010648 -0.02603138 -0.0297783)
(-0.06007187 -0.02957999 -0.02393743)
(-0.04196682 -0.03344965 -0.01988122)
(-0.02970258 -0.03684891 -0.01746238)
(-0.02066366 -0.03954065 -0.01593263)
(-0.01381411 -0.04151021 -0.01493172)
(-0.008479858 -0.04283163 -0.01425439)
(-0.004243432 -0.04361 -0.01377459)
(-0.000848798 -0.04396104 -0.01341053)
(0.001868436 -0.04399574 -0.01310979)
(0.00399569 -0.04382127 -0.01286359)
(0.005651945 -0.04354143 -0.01267343)
(0.006915454 -0.04324841 -0.01253484)
(0.007880144 -0.04301862 -0.01244797)
(0.008653237 -0.04290731 -0.01241449)
(0.009352249 -0.04294494 -0.01243613)
(0.01010122 -0.04313402 -0.01251324)
(0.01102368 -0.04344854 -0.01264484)
(0.01223756 -0.04383631 -0.01282916)
(0.01385188 -0.0442225 -0.01306544)
(0.01596965 -0.04451502 -0.01335656)
(0.01869599 -0.0446088 -0.0137124)
(0.02215583 -0.04439091 -0.0141545)
(0.02652103 -0.04374284 -0.01472276)
(0.03205487 -0.04254497 -0.01548818)
(0.03918526 -0.04068343 -0.01657418)
(0.04859899 -0.03807183 -0.01818776)
(0.06135687 -0.03470825 -0.02070331)
(0.08011544 -0.03081175 -0.02491394)
(0.1114194 -0.02716522 -0.03099851)
(-0.09463199 -0.02115863 -0.02845526)
(-0.06433965 -0.02324512 -0.02260947)
(-0.04557042 -0.02573816 -0.01845271)
(-0.03249095 -0.02805075 -0.01594811)
(-0.02263934 -0.0299235 -0.0143473)
(-0.0150588 -0.03127166 -0.01328621)
(-0.00910771 -0.0321035 -0.0125567)
(-0.004379807 -0.03247523 -0.01202664)
(-0.0006166157 -0.03247156 -0.0116085)
(0.002336827 -0.03218563 -0.01125093)
(0.004578352 -0.03172131 -0.01095068)
(0.006234503 -0.03118396 -0.01070976)
(0.007395757 -0.03067404 -0.01052711)
(0.008176844 -0.03027737 -0.01040638)
(0.008711974 -0.03005785 -0.01035279)
(0.009151696 -0.03005219 -0.01036981)
(0.009655257 -0.0302643 -0.01045813)
(0.01038104 -0.03066493 -0.01061495)
(0.01147668 -0.03119456 -0.01083524)
(0.01307504 -0.03177025 -0.011114)
(0.01529495 -0.03229213 -0.01145006)
(0.01825132 -0.03265249 -0.01185052)
(0.02207339 -0.03274289 -0.01233583)
(0.02693487 -0.03246145 -0.01294727)
(0.03309705 -0.03171924 -0.01375902)
(0.04097875 -0.03045219 -0.01489959)
(0.05123507 -0.02864202 -0.0165797)
(0.06484764 -0.02636291 -0.01917678)
(0.08431975 -0.02386603 -0.02348524)
(0.1159278 -0.02173933 -0.02956694)
(-0.09761795 -0.01736679 -0.02750828)
(-0.06731646 -0.01850645 -0.02170783)
(-0.04818172 -0.01999371 -0.01750879)
(-0.03455394 -0.02142326 -0.01495154)
(-0.0240892 -0.02256468 -0.01329168)
(-0.01590917 -0.02331123 -0.01216919)
(-0.009418738 -0.02363696 -0.01137513)
(-0.004240975 -0.02356812 -0.01077563)
(-0.0001257849 -0.02316656 -0.01027616)
(0.003048135 -0.0225175 -0.009832679)
(0.00539096 -0.02172118 -0.009449274)
(0.007023419 -0.02088851 -0.00912953)
(0.008046082 -0.02013081 -0.008877738)
(0.008594134 -0.01954658 -0.008704341)
(0.008832136 -0.01920925 -0.00862008)
(0.008948017 -0.01916444 -0.008631923)
(0.009144034 -0.01941787 -0.008740932)
(0.00961889 -0.01993565 -0.008941833)
(0.01055449 -0.02064946 -0.009224156)
(0.01210745 -0.02146517 -0.00957585)
(0.01441041 -0.02227277 -0.009988749)
(0.01758049 -0.02295736 -0.01046449)
(0.02174172 -0.02341219 -0.01102049)
(0.02705577 -0.02354531 -0.01169723)
(0.03376649 -0.02328911 -0.01257032)
(0.04226492 -0.02260979 -0.01376981)
(0.05315946 -0.02152535 -0.01550629)
(0.06735107 -0.02013571 -0.01815361)
(0.08722278 -0.01866919 -0.0225011)
(0.1188631 -0.01753458 -0.02852843)
(-0.09956783 -0.01427703 -0.02681359)
(-0.06933959 -0.01479565 -0.02107359)
(-0.04998634 -0.01555932 -0.01686255)
(-0.03596821 -0.01629994 -0.01427144)
(-0.0250243 -0.01682841 -0.01256163)
(-0.01634234 -0.01703852 -0.01137588)
(-0.009376321 -0.01688996 -0.01050704)
(-0.003786273 -0.01639222 -0.00981877)
(0.0006644123 -0.01558966 -0.009209716)
(0.004039256 -0.01457037 -0.008648272)
(0.006466432 -0.01342976 -0.008148282)
(0.008046785 -0.01228799 -0.007715498)
(0.008886801 -0.01127078 -0.007363415)
(0.00914443 -0.01049197 -0.00711251)
(0.009015968 -0.01003457 -0.006983375)
(0.008732597 -0.009955022 -0.006987978)
(0.008547661 -0.01026026 -0.007128766)
(0.00870821 -0.010912 -0.007396404)
(0.009433488 -0.01183167 -0.007772078)
(0.01090596 -0.01291242 -0.008232484)
(0.01326845 -0.01403006 -0.008758468)
(0.01663393 -0.01505958 -0.009343018)
(0.02111063 -0.01589154 -0.009997865)
(0.02683856 -0.01643963 -0.01076136)
(0.03403279 -0.01664807 -0.01170892)
(0.04304848 -0.01650068 -0.01297132)
(0.05444376 -0.01603092 -0.01475732)
(0.06905027 -0.01534081 -0.01743695)
(0.0891641 -0.01462021 -0.0217939)
(0.1207409 -0.01414098 -0.02775077)
(-0.1008012 -0.01167687 -0.02629121)
(-0.07066028 -0.01178813 -0.02061206)
(-0.05115699 -0.01204092 -0.01640141)
(-0.03683912 -0.012264 -0.01378638)
(-0.02550173 -0.01230658 -0.01203012)
(-0.01638612 -0.01207191 -0.01077822)
(-0.00899224 -0.01151522 -0.009822965)
(-0.003019207 -0.01063996 -0.009025497)
(0.001754939 -0.009471867 -0.008275647)
(0.005312784 -0.008111919 -0.007562577)
(0.007808851 -0.006650359 -0.006906688)
(0.009308638 -0.005218842 -0.006319637)
(0.009920514 -0.003955205 -0.00582815)
(0.009826289 -0.002984297 -0.005466105)
(0.009260106 -0.00240712 -0.005268034)
(0.008499268 -0.002296172 -0.005260416)
(0.007858542 -0.002663748 -0.005449338)
(0.007638004 -0.003458944 -0.005815822)
(0.008100331 -0.004583402 -0.00632368)
(0.009456727 -0.005921155 -0.006936168)
(0.01185785 -0.007336062 -0.007617993)
(0.01540271 -0.008690954 -0.008349057)
(0.02017627 -0.009872588 -0.009133404)
(0.02628802 -0.01079484 -0.01000599)
(0.03391826 -0.01140922 -0.0110421)
(0.04338191 -0.01170784 -0.01237291)
(0.05519004 -0.01172968 -0.01420655)
(0.07011674 -0.01156824 -0.01691012)
(0.09039764 -0.01137665 -0.02126453)
(0.1218898 -0.01132881 -0.02715099)
(-0.101535 -0.009444855 -0.02589132)
(-0.07146787 -0.009297836 -0.0202665)
(-0.05184428 -0.009204998 -0.01606044)
(-0.03727843 -0.009060743 -0.01342457)
(-0.02560292 -0.008745932 -0.01162265)
(-0.01610101 -0.008174979 -0.01029968)
(-0.008316102 -0.007303744 -0.009246419)
(-0.001972973 -0.006132961 -0.008314113)
(0.0030957 -0.004679427 -0.007394036)
(0.006833299 -0.003044605 -0.006494895)
(0.009384415 -0.001313861 -0.005634428)
(0.01078922 0.0003824922 -0.004831448)
(0.01114695 0.001880241 -0.004140155)
(0.01064149 0.003028395 -0.003622427)
(0.009555713 0.003690485 -0.003331213)
(0.008242802 0.00382233 -0.00330588)
(0.007068465 0.003411965 -0.003554615)
(0.006399493 0.002496987 -0.004053729)
(0.006559009 0.001170202 -0.00475202)
(0.007781171 -0.0004148554 -0.005582074)
(0.01021036 -0.002097944 -0.006480516)
(0.0139209 -0.003722219 -0.007401541)
(0.01897627 -0.005185312 -0.008348152)
(0.0254496 -0.006404702 -0.00935293)
(0.03348074 -0.007335366 -0.01049193)
(0.04334463 -0.007974301 -0.01189839)
(0.05550886 -0.008359919 -0.01378098)
(0.0707017 -0.008575026 -0.01650663)
(0.09111623 -0.008741203 -0.02085549)
(0.1225345 -0.008965901 -0.02667864)
(-0.1019241 -0.007505458 -0.02558129)
(-0.0719095 -0.00721067 -0.02000312)
(-0.05217803 -0.00690523 -0.0158009)
(-0.0373968 -0.006527027 -0.01314478)
(-0.02542235 -0.005981564 -0.011296)
(-0.01557159 -0.00519482 -0.009897835)
(-0.00742734 -0.004124298 -0.008736145)
(-0.0007213054 -0.0027649 -0.007644368)
(0.004606723 -0.001139579 -0.006528277)
(0.008536349 0.0006738698 -0.005401634)
(0.01113459 0.002564188 -0.004292632)
(0.01241127 0.004381155 -0.003244354)
(0.01247415 0.005980637 -0.002327765)
(0.01152874 0.007208099 -0.001632282)
(0.00989436 0.007938905 -0.001234537)
(0.00797732 0.008088036 -0.001186985)
(0.006225355 0.007640927 -0.001503748)
(0.005074675 0.006651033 -0.002151667)
(0.004895573 0.005233227 -0.003065586)
(0.005948385 0.003535458 -0.00414346)
(0.008377963 0.001718304 -0.005295252)
(0.01225494 -8.719359e-05 -0.006456194)
(0.01758691 -0.001734664 -0.007602523)
(0.02440165 -0.003140954 -0.008761529)
(0.03280455 -0.004273815 -0.01001644)
(0.04303128 -0.005132471 -0.0115052)
(0.05551188 -0.005753369 -0.01343968)
(0.07093716 -0.006207365 -0.01618841)
(0.0914714 -0.006591237 -0.02053357)
(0.1228375 -0.006967892 -0.02630283)
(-0.1020832 -0.005805681 -0.02533987)
(-0.07210197 -0.005448887 -0.01980075)
(-0.05227072 -0.005041274 -0.01560056)
(-0.03729974 -0.004547854 -0.01292347)
(-0.02506116 -0.003894496 -0.01102768)
(-0.01489773 -0.003018144 -0.009552202)
(-0.006427555 -0.001879907 -0.008276868)
(0.0006273061 -0.0004638428 -0.007010166)
(0.006196542 0.001190507 -0.005679296)
(0.01029188 0.003006497 -0.004315008)
(0.01293176 0.004903884 -0.002945709)
(0.01409058 0.006744058 -0.001625294)
(0.0138581 0.008370153 -0.0004554383)
(0.01245781 0.009614121 0.0004314169)
(0.01025119 0.01034616 0.0009378649)
(0.007710773 0.01049749 0.001010699)
(0.005356808 0.01005295 0.0006295668)
(0.003702108 0.009056632 -0.0001644089)
(0.003176339 0.00761176 -0.001325881)
(0.004062021 0.005884446 -0.002684207)
(0.006502881 0.004038446 -0.004111552)
(0.01052745 0.002224355 -0.00552317)
(0.01611312 0.0005518859 -0.006885836)
(0.0232494 -0.0009077664 -0.008218107)
(0.03199187 -0.002110318 -0.009597812)
(0.04254549 -0.003060111 -0.01117293)
(0.05530739 -0.003789356 -0.01316108)
(0.07093932 -0.004357841 -0.01593487)
(0.09158549 -0.004841088 -0.02027972)
(0.1229222 -0.005273873 -0.02600576)
(-0.1020928 -0.004299146 -0.02514842)
(-0.0721397 -0.003951494 -0.01964673)
(-0.05221914 -0.003533744 -0.0154468)
(-0.03708526 -0.003029548 -0.01274923)
(-0.02462015 -0.00238221 -0.01080829)
(-0.01418698 -0.001540984 -0.009258445)
(-0.00543263 -0.0004718965 -0.007871486)
(0.001938304 0.0008495516 -0.006428297)
(0.007714562 0.002356062 -0.004893631)
(0.01197465 0.004031489 -0.003299167)
(0.0146522 0.005779679 -0.001664435)
(0.01570042 0.007478745 -6.387583e-05)
(0.01517761 0.008962118 0.001337925)
(0.01333961 0.01009842 0.002439993)
(0.0105938 0.01077321 0.003089871)
(0.007464528 0.01091412 0.00319652)
(0.004543895 0.01050509 0.002731769)
(0.002406196 0.009593065 0.001744257)
(0.001530745 0.008275626 0.0003617063)
(0.002259981 0.006677333 -0.001279446)
(0.004709593 0.004972272 -0.00299452)
(0.008874982 0.003294454 -0.004659217)
(0.01469316 0.001747289 -0.006230933)
(0.02211069 0.0003952863 -0.007730579)
(0.03115431 -0.0007373677 -0.009236038)
(0.04199232 -0.001648473 -0.01089608)
(0.05499765 -0.002366381 -0.01293695)
(0.07080935 -0.002938182 -0.01573648)
(0.09155921 -0.003421117 -0.02008474)
(0.1228857 -0.003831243 -0.0257784)
(-0.1020586 -0.002950342 -0.02502348)
(-0.07210377 -0.002664232 -0.01953698)
(-0.05210497 -0.002310119 -0.0153344)
(-0.03683967 -0.001882193 -0.0126179)
(-0.02419327 -0.00134048 -0.01063754)
(-0.01354306 -0.0006473037 -0.009022233)
(-0.004555983 0.0002222907 -0.00753595)
(0.00307632 0.001301784 -0.00594091)
(0.009024303 0.002517832 -0.004232168)
(0.01342248 0.003873081 -0.00242863)
(0.01613715 0.005289086 -0.0005509566)
(0.01707356 0.00665776 0.001275095)
(0.01630801 0.007857542 0.002933103)
(0.01410354 0.00878314 0.004234109)
(0.01089157 0.009334547 0.005010795)
(0.007252036 0.009450339 0.005150261)
(0.003839773 0.009116798 0.004615173)
(0.001292379 0.008371812 0.003460308)
(0.000132133 0.007299889 0.001835238)
(0.0007012166 0.006014758 -4.347288e-05)
(0.003165173 0.004623106 -0.002027192)
(0.007450079 0.003259894 -0.003924852)
(0.01346232 0.002002003 -0.005683868)
(0.02111484 0.0008985776 -0.007328596)
(0.03040274 -2.815917e-05 -0.008944315)
(0.04147186 -0.0007813375 -0.01068009)
(0.05467407 -0.001381841 -0.01276836)
(0.07063337 -0.001863363 -0.01559226)
(0.09147473 -0.002264838 -0.01994653)
(0.1228071 -0.002589298 -0.02561967)
(-0.1019786 -0.001717938 -0.02492687)
(-0.0720441 -0.001531293 -0.01946419)
(-0.05199098 -0.001295447 -0.0152604)
(-0.03663348 -0.001010371 -0.01252961)
(-0.02386008 -0.0006517534 -0.01051941)
(-0.0130585 -0.0001962859 -0.008854807)
(-0.003900338 0.0003708743 -0.007292422)
(0.003917148 0.001074035 -0.005590087)
(0.009986496 0.001868033 -0.003750548)
(0.01448601 0.002751658 -0.001786779)
(0.01722703 0.003677618 0.0002752718)
(0.01808022 0.004564165 0.0022961)
(0.01714169 0.005350698 0.00414301)
(0.01466658 0.005957968 0.005600181)
(0.01111097 0.006320519 0.006478169)
(0.007093824 0.006396753 0.006645355)
(0.003318626 0.006176965 0.006056199)
(0.0004674003 0.005686468 0.004769984)
(-0.0008927402 0.004980189 0.002954672)
(-0.0004347986 0.00414477 0.0008560032)
(0.002024721 0.003228434 -0.001310055)
(0.006401901 0.002336289 -0.003385966)
(0.01255383 0.001513019 -0.005289375)
(0.02037366 0.0007895955 -0.007045198)
(0.029836 0.0001798222 -0.008746169)
(0.04106927 -0.0003165941 -0.01054024)
(0.0544117 -0.0007144199 -0.01266911)
(0.07047853 -0.00103329 -0.0155137)
(0.09139506 -0.001295762 -0.01987491)
(0.1227578 -0.001498029 -0.02554019)
(-0.1019321 -0.0005580172 -0.02488479)
(-0.07200583 -0.0004936568 -0.01943017)
(-0.05192217 -0.0004105578 -0.0152249)
(-0.03651665 -0.0003101853 -0.01248571)
(-0.02367682 -0.0001846474 -0.01045914)
(-0.01279526 -2.54544e-05 -0.008768141)
(-0.003546534 0.0001724614 -0.007164817)
(0.004350531 0.0004129023 -0.005404)
(0.01049901 0.0006918138 -0.003495483)
(0.01505153 0.001001749 -0.001445803)
(0.01779809 0.001327285 0.0007014167)
(0.01861191 0.001639254 0.002849052)
(0.01758348 0.001917521 0.004806885)
(0.01496531 0.002133368 0.006355259)
(0.01122689 0.002262155 0.007293347)
(0.007008753 0.002288364 0.007477544)
(0.003040374 0.002208114 0.006856689)
(2.654089e-05 0.002030384 0.005490896)
(-0.001435128 0.001777395 0.003570227)
(-0.001036975 0.001478965 0.001354485)
(0.001417641 0.001152244 -0.0009203348)
(0.005846742 0.0008362254 -0.003098859)
(0.01207163 0.0005455387 -0.005082134)
(0.01997883 0.000289988 -0.006897062)
(0.02953289 7.474317e-05 -0.00864062)
(0.0408521 -0.0001002455 -0.01046518)
(0.0542681 -0.0002399512 -0.01261453)
(0.07039209 -0.000351028 -0.01547086)
(0.09135045 -0.0004399585 -0.0198374)
(0.1227239 -0.0005046432 -0.02550154)
(-0.1019302 0.0005780034 -0.02488394)
(-0.07200442 0.0005149839 -0.01942979)
(-0.05192112 0.0004329025 -0.01522456)
(-0.03651577 0.0003328921 -0.01248549)
(-0.02367606 0.0002070938 -0.01045889)
(-0.0127945 4.709576e-05 -0.008768029)
(-0.003545718 -0.0001519312 -0.007164789)
(0.004351455 -0.0003937174 -0.00540405)
(0.0105001 -0.0006737987 -0.003495395)
(0.01505276 -0.0009848062 -0.001445649)
(0.01779928 -0.00131156 0.0007018426)
(0.01861299 -0.001625535 0.002849521)
(0.01758447 -0.00190642 0.004807496)
(0.01496622 -0.002125469 0.006355871)
(0.01122767 -0.002258115 0.007293998)
(0.007009345 -0.002288922 0.007478108)
(0.003040712 -0.002214077 0.006857174)
(2.668096e-05 -0.002042516 0.005491199)
(-0.001435151 -0.001796254 0.003570277)
(-0.001037132 -0.001504788 0.00135432)
(0.001417339 -0.001185186 -0.0009206416)
(0.005846216 -0.0008764638 -0.003099312)
(0.01207081 -0.0005935386 -0.005082765)
(0.01997794 -0.0003462742 -0.00689799)
(0.02953254 -0.0001389891 -0.008641968)
(0.04085272 3.00986e-05 -0.01046714)
(0.05427035 0.0001667178 -0.01261709)
(0.07039694 0.0002795804 -0.01547412)
(0.0913592 0.0003773335 -0.01984183)
(0.1227381 0.0004590289 -0.02550836)
(-0.1019708 0.001737702 -0.02492345)
(-0.07203937 0.001552847 -0.01946294)
(-0.05198774 0.001317855 -0.01525962)
(-0.03663089 0.001033072 -0.0125289)
(-0.02385778 0.0006741562 -0.01051887)
(-0.01305629 0.00021783 -0.00885437)
(-0.003898003 -0.0003506395 -0.007292427)
(0.003919792 -0.001055176 -0.005590063)
(0.009989651 -0.001850474 -0.00375048)
(0.01448956 -0.002735305 -0.00178621)
(0.01723042 -0.003662486 0.0002764841)
(0.01808313 -0.004551521 0.002297534)
(0.01714441 -0.005341032 0.004144522)
(0.0146691 -0.005951681 0.00560185)
(0.01111316 -0.006318133 0.006479818)
(0.007095506 -0.006398883 0.006646921)
(0.003319732 -0.006184228 0.006057465)
(0.0004679199 -0.005699438 0.004770754)
(-0.0008926828 -0.004999312 0.002954771)
(-0.0004350976 -0.004170251 0.0008555815)
(0.002024013 -0.003260317 -0.001310953)
(0.006400457 -0.002374787 -0.003387356)
(0.01255139 -0.001558708 -0.005291438)
(0.02037084 -0.0008433202 -0.007048754)
(0.02983466 -0.0002417114 -0.008751695)
(0.04107089 0.0002485617 -0.01054764)
(0.05441822 0.0006426637 -0.01267852)
(0.07049307 0.0009629034 -0.01552539)
(0.09142248 0.001234175 -0.01989032)
(0.1228058 0.001455902 -0.02556435)
(-0.1020341 0.002975123 -0.02501067)
(-0.0720952 0.00268705 -0.01953449)
(-0.05209988 0.002332869 -0.01533317)
(-0.03683553 0.001904958 -0.01261697)
(-0.02418961 0.001362835 -0.01063666)
(-0.01353958 0.0006687105 -0.009021636)
(-0.004552393 -0.0002022465 -0.007535655)
(0.003080555 -0.001283441 -0.005940935)
(0.0090293 -0.002501106 -0.004231894)
(0.01342828 -0.003857822 -0.002427757)
(0.01614239 -0.005274926 -0.0005479613)
(0.01707766 -0.006646955 0.001277371)
(0.01631198 -0.007850185 0.00293525)
(0.01410744 -0.00877933 0.004236209)
(0.01089508 -0.009334599 0.005012923)
(0.007254908 -0.009454698 0.005152178)
(0.00384185 -0.0091259 0.004616646)
(0.001293706 -0.008386023 0.003461004)
(0.0001328461 -0.007319414 0.001835036)
(0.0007015304 -0.006039561 -4.427517e-05)
(0.00316495 -0.004653062 -0.002028808)
(0.0074486 -0.003295027 -0.003927212)
(0.01345893 -0.002042462 -0.005687893)
(0.0211102 -0.0009447026 -0.007337342)
(0.03040005 -2.376024e-05 -0.008961271)
(0.0414737 0.0007251022 -0.01070123)
(0.05468353 0.0013229 -0.01279682)
(0.07065628 0.001805151 -0.01562532)
(0.09152195 0.002212177 -0.0199853)
(0.1229054 0.00254925 -0.02567377)
(-0.1020979 0.004324889 -0.02515628)
(-0.07213494 0.003974547 -0.01964708)
(-0.05221335 0.003556459 -0.01544611)
(-0.03707993 0.003052176 -0.01274812)
(-0.02461529 0.002404355 -0.01080723)
(-0.01418237 0.001562106 -0.009257527)
(-0.005427894 0.0004914529 -0.007871061)
(0.001943555 -0.0008321335 -0.006428276)
(0.007720972 -0.002340825 -0.004893381)
(0.01198257 -0.00401874 -0.003297398)
(0.01465885 -0.005769797 -0.001655575)
(0.01570482 -0.007471609 -6.009367e-05)
(0.01518241 -0.008957936 0.001340129)
(0.01334468 -0.01009754 0.002441973)
(0.01059866 -0.01077595 0.003091669)
(0.007468758 -0.01092081 0.003198063)
(0.004547369 -0.01051598 0.002732723)
(0.002408941 -0.009608266 0.00174433)
(0.001533044 -0.008295072 0.000361117)
(0.002262109 -0.006700743 -0.001281027)
(0.004711276 -0.004999443 -0.002996828)
(0.008875581 -0.003325009 -0.004662167)
(0.01469208 -0.001780548 -0.00623545)
(0.02210854 -0.0004303159 -0.0077399)
(0.03115472 0.0007017214 -0.009253667)
(0.04199802 0.001612182 -0.01091788)
(0.05501212 0.00233041 -0.01296627)
(0.07083874 0.002902535 -0.01577074)
(0.09161467 0.003385095 -0.02012507)
(0.1229945 0.003791296 -0.02583426)
(-0.1020767 0.005827475 -0.02534161)
(-0.0720948 0.005470936 -0.01980067)
(-0.05226357 0.005063538 -0.01559961)
(-0.03729317 0.004570094 -0.01292217)
(-0.02505526 0.003916267 -0.01102622)
(-0.01489229 0.003038845 -0.00955105)
(-0.006422244 0.001898912 -0.008276069)
(0.0006328793 0.0004806932 -0.007010075)
(0.00620306 -0.00117664 -0.005679386)
(0.01029915 -0.002995909 -0.004314944)
(0.01293866 -0.004897396 -0.002944172)
(0.01409674 -0.006739721 -0.00162438)
(0.01386443 -0.008368414 -0.000454387)
(0.01246433 -0.009615449 0.0004325913)
(0.01025751 -0.01035085 0.0009387502)
(0.007716612 -0.01050572 0.001011198)
(0.005362072 -0.01006475 0.000629738)
(0.00370698 -0.0090719 -0.0001650343)
(0.003181129 -0.007630212 -0.001327527)
(0.004066931 -0.005905864 -0.002686667)
(0.006507756 -0.004062432 -0.004114437)
(0.01053205 -0.002250479 -0.005526264)
(0.01611726 -0.0005793262 -0.006889547)
(0.02325419 0.00088068 -0.008223531)
(0.03199957 0.002084695 -0.009605625)
(0.04255863 0.003035566 -0.01118272)
(0.05532896 0.003766141 -0.01317357)
(0.07097341 0.004334452 -0.01595048)
(0.09163771 0.004814467 -0.02029997)
(0.1230007 0.005237317 -0.02603481)
(-0.1019139 0.007527398 -0.02558172)
(-0.07190031 0.007232408 -0.02000265)
(-0.05216944 0.006927088 -0.01579975)
(-0.03738908 0.006548804 -0.01314307)
(-0.02541548 0.006002835 -0.01129425)
(-0.01556544 0.005215081 -0.009896206)
(-0.007421554 0.004142964 -0.008735074)
(-0.0007155595 0.002781421 -0.007643866)
(0.004612961 0.00115339 -0.006528565)
(0.008543171 -0.0006632761 -0.005402155)
(0.01114172 -0.002557409 -0.004293148)
(0.01241841 -0.004377191 -0.003244893)
(0.01248162 -0.005979523 -0.002328298)
(0.01153647 -0.007210045 -0.001632634)
(0.009902145 -0.007944044 -0.001234992)
(0.007984928 -0.008096331 -0.001187692)
(0.006232794 -0.00765224 -0.001505009)
(0.005082085 -0.006665118 -0.002153643)
(0.004903267 -0.005249868 -0.003068262)
(0.005956633 -0.003554426 -0.004146578)
(0.008386505 -0.001739615 -0.005298509)
(0.01226381 6.441021e-05 -0.006459438)
(0.01759655 0.001711176 -0.007606021)
(0.02441281 0.003117519 -0.008765656)
(0.0328189 0.004251066 -0.01002158)
(0.04305088 0.00511037 -0.01151161)
(0.05553911 0.005731755 -0.01344774)
(0.07097474 0.006185246 -0.01619863)
(0.09152246 0.006566508 -0.02054691)
(0.1229066 0.006936989 -0.0263213)
(-0.101523 0.009467188 -0.02589101)
(-0.07145738 0.009319361 -0.02026577)
(-0.05183457 0.009226355 -0.01605888)
(-0.0372697 0.009081839 -0.01342259)
(-0.0255952 0.008766504 -0.01162041)
(-0.01609415 0.008194604 -0.01029771)
(-0.008309833 0.007321964 -0.009244835)
(-0.001966982 0.006149266 -0.008313325)
(0.003101961 0.004693196 -0.007393923)
(0.006840036 0.003055471 -0.006495522)
(0.009391545 0.001321711 -0.005635518)
(0.01079689 -0.0003776376 -0.004832916)
(0.01115522 -0.00187842 -0.004141684)
(0.01065033 -0.003029733 -0.003624061)
(0.009564877 -0.003694783 -0.003332939)
(0.008252214 -0.00382943 -0.003307909)
(0.007078144 -0.003421654 -0.003557027)
(0.006409539 -0.002509223 -0.004056605)
(0.006569583 -0.001184606 -0.004755232)
(0.007792455 0.0003984518 -0.005585419)
(0.01022266 0.002079841 -0.006483873)
(0.01393418 0.003702699 -0.007404858)
(0.01899073 0.005164754 -0.008351582)
(0.02546609 0.0063836 -0.009356762)
(0.03350062 0.007314124 -0.0104965)
(0.04336961 0.007953001 -0.01190393)
(0.0555409 0.008338505 -0.01378774)
(0.07074276 0.008553088 -0.01651481)
(0.09116802 0.008717868 -0.02086529)
(0.1226003 0.00893857 -0.02669171)
(-0.1007879 0.01169894 -0.02629055)
(-0.07064886 0.0118091 -0.0206109)
(-0.05114637 0.01206144 -0.01639967)
(-0.03682954 0.01228414 -0.013784)
(-0.02549318 0.01232614 -0.01202762)
(-0.01637855 0.01209063 -0.01077573)
(-0.008985364 0.0115327 -0.009821012)
(-0.003012733 0.01065581 -0.009024105)
(0.001761366 0.009485625 -0.008275167)
(0.0053196 0.008123176 -0.007562824)
(0.007816253 0.006658888 -0.006907697)
(0.009316794 0.005224579 -0.006321089)
(0.009929529 0.003958143 -0.005830039)
(0.009836078 0.002984503 -0.005468251)
(0.009270629 0.00240457 -0.005270451)
(0.008510445 0.002291036 -0.005263044)
(0.007870381 0.002656261 -0.005452265)
(0.007650609 0.003449454 -0.005819017)
(0.008113824 0.004571978 -0.006327025)
(0.009471141 0.005907888 -0.006939503)
(0.01187335 0.007321072 -0.007621249)
(0.01541946 0.008674308 -0.008352339)
(0.02019464 0.00985457 -0.009136907)
(0.02630877 0.01077578 -0.01000999)
(0.03394255 0.01138936 -0.01104681)
(0.04341124 0.01168728 -0.0123785)
(0.05522614 0.01170837 -0.01421302)
(0.07016136 0.01154598 -0.01691713)
(0.09045097 0.01135306 -0.02126954)
(0.1219519 0.01130359 -0.02715917)
(-0.09955352 0.01429839 -0.02681241)
(-0.06932744 0.01481564 -0.0210723)
(-0.04997499 0.0155787 -0.01686047)
(-0.03595784 0.0163188 -0.01426896)
(-0.02501498 0.01684668 -0.01255876)
(-0.01633398 0.01705598 -0.01137318)
(-0.009368752 0.01690637 -0.01050458)
(-0.003779143 0.01640725 -0.009816986)
(0.0006713661 0.01560299 -0.0092086)
(0.00404654 0.01458163 -0.008648054)
(0.006474277 0.01343875 -0.008148722)
(0.008055488 0.01229459 -0.007716629)
(0.008896469 0.01127492 -0.007364985)
(0.009155158 0.01049367 -0.007114529)
(0.009027725 0.0100339 -0.006985667)
(0.008745378 0.009952117 -0.00699057)
(0.008561415 0.01025526 -0.007131547)
(0.008723004 0.01090506 -0.007399341)
(0.009449355 0.01182287 -0.007775072)
(0.01092294 0.01290181 -0.008235509)
(0.01328666 0.01401771 -0.008761563)
(0.01665359 0.01504554 -0.009346333)
(0.02113216 0.01587597 -0.01000161)
(0.02686269 0.0164227 -0.01076572)
(0.03406051 0.01662993 -0.01171405)
(0.04308107 0.0164814 -0.01297729)
(0.05448265 0.01601041 -0.0147642)
(0.06909685 0.01531886 -0.0174447)
(0.08921943 0.01459665 -0.02180229)
(0.1208075 0.01411751 -0.02776118)
(-0.09760292 0.01738695 -0.02750693)
(-0.06730375 0.01852514 -0.0217062)
(-0.04816971 0.02001162 -0.01750673)
(-0.03454288 0.02144059 -0.01494883)
(-0.02407909 0.02258135 -0.01328883)
(-0.01590001 0.02332715 -0.01216621)
(-0.00941032 0.02365193 -0.01137253)
(-0.004233047 0.02358192 -0.01077339)
(-0.0001180086 0.02317894 -0.01027466)
(0.003056176 0.0225282 -0.009831804)
(0.005399585 0.02173004 -0.009449177)
(0.00703291 0.0208954 -0.009129979)
(0.008056661 0.02013568 -0.008878778)
(0.00860589 0.01954941 -0.008705767)
(0.008845149 0.01921007 -0.008621901)
(0.008962258 0.01916333 -0.008633988)
(0.009159509 0.01941489 -0.008743236)
(0.009635566 0.01993091 -0.008944287)
(0.01057239 0.02064299 -0.009226774)
(0.01212659 0.02145699 -0.009578652)
(0.01443092 0.02226291 -0.00999184)
(0.01760261 0.02294588 -0.01046803)
(0.02176589 0.02339917 -0.01102462)
(0.02708264 0.02353086 -0.01170207)
(0.03379695 0.0232733 -0.01257595)
(0.04230004 0.02259262 -0.01377629)
(0.05320051 0.02150675 -0.01551368)
(0.06739937 0.02011559 -0.01816202)
(0.08728001 0.01864766 -0.02251084)
(0.1189327 0.01751283 -0.02854029)
(-0.09461628 0.0211772 -0.02845351)
(-0.06432644 0.02326213 -0.02260791)
(-0.04555784 0.02575437 -0.01845048)
(-0.03247921 0.02806629 -0.0159456)
(-0.0226285 0.02993838 -0.01434436)
(-0.01504879 0.03128576 -0.01328339)
(-0.009098424 0.0321167 -0.01255394)
(-0.00437092 0.03248738 -0.01202436)
(-0.0006078634 0.03248249 -0.01160664)
(0.002345894 0.03219517 -0.01124976)
(0.004588 0.03172937 -0.01095004)
(0.006245094 0.03119046 -0.01070975)
(0.007407468 0.03067893 -0.01052755)
(0.008189855 0.03028065 -0.01040731)
(0.008726329 0.03005951 -0.01035406)
(0.009167442 0.03005226 -0.01037143)