/*--------------------------------*- C++ -*----------------------------------*\
| =========                 |                                                 |
| \\      /  F ield         | OpenFOAM: The Open Source CFD Toolbox           |
|  \\    /   O peration     | Version:  2506                                  |
|   \\  /    A nd           | Website:  www.openfoam.com                      |
|    \\/     M anipulation  |                                                 |
\*---------------------------------------------------------------------------*/
FoamFile
{
    version     2.0;
    format      ascii;
    arch        "LSB;label=32;scalar=64";
    class       volScalarField;
    location    "60/airRegion";
    object      k;
}
// * * * * * * * * * * * * * * * * * * * * * * * * * * * * * * * * * * * * * //

dimensions      [0 2 -2 0 0 0 0];

internalField   nonuniform List<scalar> 
260661
(
0.1686803
0.1627464
0.1587816
0.1427353
0.1411443
0.1410821
0.1412331
0.1413936
0.1415333
0.1416526
0.1417562
0.1418476
0.1419295
0.1420038
0.1420719
0.1421347
0.1421928
0.1422469
0.1422973
0.1423444
0.1423884
0.1424296
0.1424681
0.1425042
0.142538
0.1425699
0.1426001
0.1426287
0.1426563
0.1426831
0.1427096
0.1427363
0.1427637
0.1427925
0.1428237
0.142858
0.1428968
0.1429416
0.1429943
0.1430573
0.143134
0.1432287
0.1433463
0.1434914
0.1436593
0.1437896
0.1436443
0.1430371
0.1451465
0.1081992
0.1617008
0.1446969
0.1426484
0.1410862
0.1409592
0.1411742
0.1414305
0.1416588
0.1418534
0.1420206
0.1421668
0.1422969
0.1424142
0.1425212
0.1426195
0.1427103
0.1427947
0.1428732
0.1429465
0.143015
0.143079
0.1431389
0.1431949
0.1432473
0.1432965
0.1433428
0.1433865
0.143428
0.1434679
0.1435066
0.1435448
0.1435833
0.1436228
0.1436643
0.143709
0.1437583
0.1438138
0.1438777
0.1439526
0.1440421
0.1441506
0.1442841
0.1444502
0.1446567
0.1449044
0.1451489
0.1450974
0.1431847
0.1373611
0.1073219
0.1438904
0.1416397
0.1413702
0.1414583
0.1418299
0.1422386
0.1426015
0.1429097
0.1431727
0.1434008
0.1436024
0.1437831
0.143947
0.1440971
0.1442355
0.1443637
0.144483
0.1445941
0.1446979
0.1447949
0.1448857
0.1449705
0.1450499
0.1451242
0.1451937
0.1452591
0.1453207
0.1453792
0.1454353
0.1454897
0.1455432
0.1455971
0.1456523
0.1457102
0.1457724
0.1458409
0.1459179
0.1460062
0.1461096
0.1462325
0.1463812
0.1465635
0.1467902
0.1470735
0.1474204
0.1477923
0.147885
0.1458683
0.1387896
0.1060317
0.1421016
0.141255
0.1415193
0.1419957
0.1425772
0.1431128
0.1435701
0.1439585
0.1442933
0.1445869
0.1448486
0.1450848
0.1453001
0.145498
0.145681
0.1458508
0.146009
0.1461567
0.1462947
0.1464237
0.1465445
0.1466574
0.1467629
0.1468616
0.146954
0.1470407
0.1471223
0.1471996
0.1472736
0.1473452
0.1474156
0.1474862
0.1475586
0.1476343
0.1477156
0.1478049
0.147905
0.1480196
0.1481533
0.1483119
0.1485029
0.1487363
0.1490256
0.1493866
0.1498318
0.1503276
0.1505701
0.1486879
0.141535
0.1053197
0.1414899
0.1411418
0.1418635
0.1425745
0.1432886
0.1439198
0.1444588
0.1449218
0.1453256
0.1456833
0.1460045
0.1462962
0.1465634
0.1468098
0.1470381
0.1472505
0.1474487
0.1476339
0.1478072
0.1479693
0.148121
0.1482629
0.1483955
0.1485194
0.1486352
0.1487437
0.1488457
0.1489422
0.1490342
0.1491231
0.1492103
0.1492977
0.149387
0.1494804
0.1495804
0.14969
0.1498127
0.1499528
0.1501157
0.1503083
0.1505393
0.1508204
0.1511667
0.1515967
0.1521251
0.1527196
0.15307
0.1512489
0.1438916
0.1048163
0.1412096
0.1412177
0.14223
0.1430979
0.1439114
0.1446233
0.1452359
0.1457678
0.1462364
0.1466552
0.1470338
0.1473794
0.1476973
0.1479913
0.1482645
0.1485192
0.1487572
0.1489799
0.1491885
0.1493837
0.1495666
0.1497375
0.1498974
0.1500465
0.1501857
0.1503159
0.1504379
0.150553
0.1506627
0.1507684
0.1508718
0.1509751
0.1510804
0.1511905
0.1513081
0.1514367
0.1515804
0.1517441
0.1519338
0.1521572
0.152424
0.152747
0.1531424
0.1536296
0.1542238
0.1548908
0.1553119
0.1535051
0.1459062
0.1044272
0.1412388
0.1414146
0.1425763
0.1435476
0.1444425
0.1452269
0.1459072
0.1465034
0.1470331
0.1475097
0.1479431
0.1483404
0.1487072
0.1490475
0.1493645
0.1496606
0.1499377
0.1501974
0.1504409
0.1506691
0.150883
0.1510828
0.1512696
0.1514437
0.1516059
0.1517572
0.1518988
0.1520318
0.1521582
0.1522795
0.1523981
0.1525162
0.1526364
0.1527617
0.1528953
0.1530412
0.1532038
0.1533886
0.1536021
0.1538526
0.1541504
0.1545089
0.154945
0.1554781
0.1561225
0.1568408
0.1573058
0.1554886
0.1476557
0.1041092
0.1413728
0.1416316
0.1428803
0.1439303
0.1448969
0.1457481
0.1464918
0.1471483
0.1477355
0.1482668
0.1487521
0.1491989
0.1496127
0.1499976
0.1503569
0.1506933
0.1510087
0.1513047
0.1515827
0.1518434
0.1520878
0.1523163
0.1525297
0.1527283
0.152913
0.1530849
0.153245
0.153395
0.153537
0.1536728
0.153805
0.1539365
0.15407
0.1542089
0.1543569
0.154518
0.1546973
0.1549005
0.1551345
0.1554082
0.1557322
0.1561202
0.1565892
0.1571584
0.1578406
0.158595
0.1590866
0.1572468
0.1491968
0.1038382
0.1415101
0.1418246
0.1431395
0.1442576
0.1452896
0.1462031
0.1470062
0.1477193
0.1483606
0.1489435
0.1494782
0.149972
0.1504306
0.1508584
0.1512587
0.1516341
0.1519867
0.1523183
0.1526301
0.1529229
0.1531974
0.1534541
0.1536936
0.1539162
0.1541228
0.1543143
0.1544922
0.1546581
0.1548142
0.1549632
0.1551076
0.1552508
0.1553959
0.1555466
0.1557068
0.1558811
0.1560747
0.1562935
0.156545
0.156838
0.1571836
0.1575957
0.158091
0.1586885
0.1593995
0.1601799
0.1606884
0.1588215
0.1505717
0.1036018
0.1416282
0.1419886
0.143361
0.1445405
0.1456328
0.1466043
0.1474628
0.1482291
0.1489212
0.1495528
0.150134
0.1506725
0.1511739
0.1516426
0.1520822
0.1524954
0.1528843
0.1532506
0.1535955
0.1539198
0.1542241
0.1545088
0.154774
0.1550203
0.155248
0.1554582
0.1556524
0.1558327
0.1560015
0.156162
0.1563169
0.1564701
0.1566248
0.1567854
0.156956
0.1571412
0.1573466
0.1575785
0.1578443
0.1581531
0.1585162
0.1589474
0.1594637
0.1600836
0.1608174
0.1616188
0.1621405
0.1602463
0.1518094
0.1033926
0.1417281
0.1421286
0.1435525
0.1447878
0.1459356
0.1469608
0.147871
0.1486868
0.1494265
0.1501037
0.1507288
0.1513095
0.1518515
0.1523593
0.1528366
0.1532862
0.1537102
0.1541103
0.1544876
0.1548431
0.1551767
0.1554888
0.1557795
0.1560487
0.1562968
0.1565248
0.1567342
0.1569276
0.1571074
0.1572774
0.1574409
0.1576022
0.1577648
0.1579331
0.1581119
0.1583061
0.1585211
0.1587633
0.1590406
0.1593618
0.1597386
0.1601848
0.1607175
0.1613554
0.1621088
0.1629302
0.1634679
0.1615533
0.1529392
0.1032219
0.1418135
0.1422497
0.1437199
0.1450059
0.1462046
0.1472793
0.1482372
0.1490991
0.1498831
0.150603
0.1512693
0.1518896
0.15247
0.153015
0.1535283
0.1540128
0.1544707
0.1549037
0.1553129
0.1556987
0.1560614
0.1564009
0.1567166
0.1570082
0.1572759
0.1575205
0.1577438
0.1579483
0.1581374
0.1583151
0.1584853
0.1586525
0.158821
0.1589953
0.1591803
0.1593812
0.1596035
0.1598537
0.1601397
0.1604704
0.1608573
0.1613147
0.1618598
0.162512
0.1632832
0.1641274
0.1646933
0.1627994
0.1540752
0.1031067
0.1418877
0.1423556
0.1438675
0.1451995
0.1464444
0.1475644
0.1485664
0.1494708
0.1502958
0.1510555
0.1517602
0.1524177
0.1530342
0.1536142
0.1541618
0.1546798
0.1551702
0.1556351
0.1560752
0.1564911
0.1568824
0.1572488
0.1575891
0.1579027
0.1581892
0.1584493
0.1586848
0.1588989
0.1590953
0.1592785
0.1594533
0.1596245
0.159797
0.1599754
0.1601647
0.1603703
0.160598
0.160854
0.1611461
0.1614835
0.1618773
0.1623419
0.162895
0.163557
0.1643426
0.1652114
0.1658277
0.1640708
0.1556079
0.1023645
0.1419527
0.1424489
0.1439982
0.1453716
0.1466585
0.1478199
0.1488621
0.1498055
0.1506684
0.1514648
0.1522051
0.1528972
0.1535474
0.1541604
0.1547403
0.1552898
0.1558115
0.1563071
0.1567773
0.1572225
0.157642
0.1580349
0.1583995
0.1587345
0.159039
0.1593133
0.1595595
0.1597812
0.1599829
0.1601698
0.1603472
0.1605206
0.1606951
0.1608757
0.1610677
0.1612764
0.1615075
0.1617673
0.1620633
0.1624047
0.1628021
0.1632696
0.1638245
0.164487
0.1652716
0.1661391
0.1667596
0.1650805
0.1568992
0.101049
0.1420099
0.1425313
0.1441141
0.1455247
0.1468494
0.1480482
0.149127
0.150106
0.1510035
0.1518335
0.1526065
0.1533306
0.154012
0.1546557
0.1552657
0.1558451
0.1563964
0.1569212
0.1574204
0.157894
0.1583411
0.15876
0.1591484
0.1595042
0.1598257
0.160113
0.1603684
0.1605959
0.1608008
0.1609893
0.1611676
0.1613413
0.1615163
0.1616977
0.1618909
0.1621012
0.162334
0.1625961
0.1628942
0.1632371
0.1636352
0.1641015
0.1646518
0.1653037
0.1660674
0.1668961
0.1674459
0.1655593
0.1567915
0.1022524
0.1420602
0.1426041
0.1442167
0.1456604
0.147019
0.1482514
0.1493632
0.1503744
0.1513032
0.1521637
0.1529666
0.1537198
0.1544297
0.1551016
0.1557395
0.1563466
0.1569256
0.1574779
0.1580047
0.1585055
0.1589792
0.1594233
0.1598347
0.1602104
0.160548
0.160847
0.1611098
0.1613413
0.1615479
0.1617365
0.1619141
0.1620867
0.162261
0.1624419
0.1626353
0.1628459
0.1630795
0.1633423
0.1636411
0.1639839
0.1643806
0.1648426
0.1653839
0.1660181
0.1667476
0.1675129
0.1679422
0.1657948
0.1564849
0.1028812
0.1421043
0.142668
0.1443069
0.14578
0.1471687
0.148431
0.1495722
0.1506121
0.1515691
0.152457
0.1532866
0.154066
0.1548019
0.1554993
0.1561624
0.1567948
0.1573992
0.1579772
0.1585294
0.1590558
0.1595544
0.1600225
0.1604558
0.1608505
0.1612029
0.1615122
0.1617811
0.1620152
0.1622221
0.1624097
0.1625854
0.1627562
0.1629287
0.1631085
0.163301
0.1635113
0.163745
0.1640078
0.1643062
0.1646479
0.1650419
0.1654985
0.1660296
0.1666449
0.1673395
0.1680406
0.1683501
0.1660044
0.1563695
0.103036
0.1421428
0.1427237
0.1443857
0.1458845
0.1472996
0.1485882
0.1497553
0.1508206
0.1518023
0.1527144
0.1535677
0.1543704
0.1551291
0.1558493
0.156535
0.15719
0.1578172
0.158418
0.1589933
0.1595429
0.1600644
0.1605543
0.1610078
0.1614197
0.1617855
0.1621039
0.1623777
0.1626137
0.16282
0.1630058
0.1631794
0.163348
0.1635187
0.1636971
0.1638885
0.1640983
0.1643315
0.1645938
0.1648914
0.1652315
0.1656224
0.1660736
0.166595
0.1671934
0.1678566
0.1684953
0.1686639
0.1661511
0.1561686
0.1043147
0.1421758
0.1427717
0.1444535
0.1459746
0.1474125
0.148724
0.1499134
0.1510007
0.1520039
0.1529371
0.1538109
0.1546338
0.1554123
0.156152
0.1568573
0.1575319
0.1581786
0.1587992
0.1593946
0.1599643
0.1605056
0.1610146
0.1614857
0.1619127
0.1622903
0.1626165
0.1628946
0.163132
0.1633378
0.1635222
0.1636938
0.1638608
0.1640298
0.164207
0.1643977
0.1646069
0.1648397
0.1651014
0.1653982
0.1657367
0.1661247
0.1665709
0.1670842
0.1676686
0.1683052
0.1688692
0.1687878
0.166281
0.1588336
0.10602
0.1422038
0.1428123
0.144511
0.1460509
0.1475082
0.1488389
0.1500474
0.1511534
0.1521748
0.1531257
0.1540169
0.1548567
0.1556519
0.1564079
0.1571294
0.1578201
0.1584829
0.1591199
0.1597318
0.1603175
0.160875
0.1613995
0.161885
0.1623245
0.1627119
0.1630447
0.1633266
0.1635658
0.163772
0.1639558
0.1641265
0.1642926
0.1644612
0.1646379
0.1648285
0.1650376
0.1652703
0.1655318
0.165828
0.1661651
0.1665506
0.1669929
0.1674996
0.1680729
0.1686873
0.1691763
0.1687781
0.1679515
0.1829592
0.2328997
0.1422269
0.1428457
0.1445583
0.1461138
0.1475871
0.1489337
0.1501579
0.1512792
0.1523156
0.153281
0.1541862
0.1550398
0.1558483
0.1566174
0.1573517
0.1580549
0.15873
0.1593793
0.1600033
0.1606011
0.1611704
0.1617061
0.1622021
0.1626508
0.1630457
0.1633842
0.1636701
0.1639118
0.1641196
0.1643044
0.164476
0.1646427
0.1648121
0.1649896
0.1651809
0.1653907
0.165624
0.1658857
0.1661818
0.1665181
0.166902
0.1673419
0.167846
0.1684178
0.1690379
0.1695771
0.1694382
0.1668378
0.1591743
0.1059542
0.1422452
0.1428723
0.144596
0.1461637
0.1476496
0.1490089
0.1502454
0.1513788
0.1524268
0.1534035
0.1543196
0.1551835
0.156002
0.1567807
0.1575241
0.1582361
0.1589197
0.1595771
0.1602088
0.1608139
0.1613903
0.1619328
0.1624352
0.1628897
0.1632898
0.1636331
0.1639231
0.1641684
0.1643793
0.164567
0.1647413
0.1649106
0.1650823
0.165262
0.1654553
0.1656668
0.1659014
0.166164
0.1664606
0.1667965
0.1671794
0.1676177
0.16812
0.1686917
0.1693189
0.1698971
0.1699172
0.1671969
0.157029
0.1028898
0.1422589
0.1428922
0.144624
0.1462009
0.1476962
0.1490648
0.1503104
0.1514525
0.1525089
0.1534936
0.1544173
0.1552884
0.1561136
0.1568984
0.1576474
0.1583644
0.1590523
0.1597135
0.1603485
0.1609563
0.1615349
0.1620794
0.1625839
0.1630407
0.1634438
0.1637907
0.1640849
0.1643349
0.1645509
0.1647437
0.1649227
0.1650965
0.1652722
0.1654556
0.1656522
0.1658664
0.1661033
0.1663676
0.1666651
0.1670013
0.1673835
0.16782
0.1683192
0.1688866
0.169506
0.1700633
0.1699743
0.1669546
0.1556179
0.095533
0.1422681
0.1429054
0.1446426
0.1462255
0.147727
0.1491016
0.150353
0.1515006
0.1525623
0.1535518
0.1544799
0.1553549
0.1561834
0.1569709
0.1577219
0.1584402
0.1591287
0.1597894
0.1604233
0.1610294
0.1616057
0.1621478
0.1626502
0.163106
0.1635097
0.1638592
0.1641579
0.1644136
0.1646362
0.1648357
0.1650214
0.1652014
0.1653828
0.1655713
0.1657722
0.1659902
0.1662302
0.166497
0.166796
0.167133
0.1675149
0.1679498
0.1684453
0.1690058
0.1696154
0.1701674
0.1701507
0.1673772
0.1571439
0.1029116
0.1422727
0.142912
0.1446519
0.1462377
0.147742
0.1491194
0.1503735
0.1515234
0.1525871
0.1535783
0.1545075
0.1553831
0.1562117
0.1569986
0.1577482
0.1584642
0.1591495
0.159806
0.1604346
0.1610349
0.1616046
0.1621402
0.1626368
0.1630885
0.1634906
0.1638416
0.1641446
0.1644068
0.1646371
0.1648448
0.1650386
0.1652264
0.1654149
0.1656097
0.165816
0.1660387
0.1662826
0.1665524
0.1668537
0.1671921
0.1675743
0.1680074
0.168498
0.169047
0.1696311
0.1701167
0.1699022
0.1671889
0.159368
0.1060673
0.1422727
0.1429119
0.1446517
0.1462373
0.1477413
0.1491183
0.1503716
0.1515207
0.1525832
0.1535728
0.1545002
0.1553733
0.1561988
0.1569819
0.1577269
0.1584373
0.1591162
0.159765
0.1603849
0.1609757
0.1615354
0.1620613
0.1625491
0.1629942
0.1633929
0.1637441
0.164051
0.1643196
0.164558
0.1647745
0.1649772
0.1651736
0.1653698
0.1655716
0.1657841
0.166012
0.1662603
0.1665339
0.1668381
0.1671785
0.1675617
0.167994
0.1684806
0.1690194
0.1695774
0.1699789
0.1694465
0.1684118
0.1830487
0.2340456
0.1422682
0.1429053
0.1446421
0.1462245
0.1477249
0.1490982
0.1503477
0.1514927
0.1525509
0.1535359
0.1544583
0.155326
0.1561455
0.1569219
0.1576595
0.1583615
0.1590309
0.1596694
0.1602779
0.1608566
0.1614039
0.1619177
0.1623948
0.1628313
0.163225
0.1635753
0.1638849
0.1641592
0.1644052
0.1646304
0.1648418
0.1650468
0.1652508
0.1654597
0.1656785
0.1659118
0.1661648
0.1664425
0.1667501
0.1670934
0.1674789
0.1679127
0.1683999
0.168938
0.1694967
0.1699347
0.1696494
0.1668221
0.1588254
0.1063516
0.1422591
0.1428921
0.1446233
0.1461992
0.147693
0.1490594
0.1503019
0.1514398
0.1524906
0.1534681
0.1543827
0.1552421
0.1560529
0.1568199
0.1575475
0.1582386
0.1588962
0.159522
0.1601171
0.1606816
0.1612147
0.1617148
0.1621796
0.1626064
0.1629938
0.1633417
0.1636528
0.1639316
0.1641841
0.164417
0.1646366
0.1648495
0.1650612
0.1652768
0.1655017
0.1657405
0.1659982
0.1662802
0.1665917
0.1669387
0.1673276
0.1677649
0.1682557
0.1687974
0.1693605
0.1698234
0.1696623
0.1667041
0.1559686
0.1059138
0.1422455
0.1428723
0.1445951
0.1461616
0.1476455
0.1490018
0.1502343
0.151362
0.1524026
0.1533696
0.1542735
0.1551221
0.1559215
0.1566767
0.1573919
0.15807
0.1587138
0.1593251
0.1599051
0.160454
0.1609718
0.1614572
0.1619086
0.1623248
0.1627048
0.1630491
0.16336
0.1636417
0.1638992
0.1641383
0.1643649
0.1645846
0.1648029
0.1650248
0.1652552
0.1654991
0.1657616
0.1660478
0.1663634
0.1667148
0.1671084
0.1675514
0.1680492
0.1686002
0.1691751
0.169633
0.169371
0.1665777
0.1586154
0.1063561
0.1422274
0.1428458
0.1445575
0.1461114
0.1475823
0.1489255
0.1501447
0.1512592
0.1522866
0.1532405
0.154131
0.1549661
0.1557517
0.1564929
0.1571934
0.1578566
0.1584848
0.15908
0.1596436
0.160176
0.1606776
0.1611475
0.1615853
0.16199
0.1623616
0.1627009
0.1630102
0.1632929
0.1635535
0.1637972
0.1640291
0.1642543
0.1644779
0.1647051
0.1649404
0.1651886
0.1654552
0.1657454
0.1660653
0.1664214
0.1668207
0.1672712
0.1677793
0.1683447
0.1689375
0.1693856
0.1689203
0.1679828
0.1827174
0.2324949
0.1422045
0.1428125
0.1445103
0.1460485
0.1475032
0.14883
0.1500329
0.1511312
0.1521425
0.1530803
0.1539549
0.1547739
0.1555435
0.1562684
0.1569525
0.1575988
0.1582099
0.1587878
0.159334
0.1598491
0.1603339
0.160788
0.1612114
0.1616041
0.1619664
0.1622993
0.1626052
0.1628871
0.163149
0.1633951
0.1636305
0.1638598
0.1640873
0.1643183
0.1645573
0.1648092
0.1650792
0.165373
0.1656969
0.1660577
0.1664635
0.1669235
0.1674463
0.1680362
0.1686746
0.1692339
0.1691227
0.1665542
0.1589438
0.1060082
0.1421768
0.1427722
0.1444531
0.1459725
0.1474076
0.1487148
0.1498983
0.1509774
0.1519697
0.1528887
0.1537447
0.1545454
0.1552966
0.1560031
0.1566688
0.1572967
0.1578893
0.1584488
0.1589765
0.1594738
0.1599411
0.1603789
0.1607876
0.1611677
0.1615198
0.1618451
0.1621459
0.1624252
0.1626863
0.1629329
0.1631699
0.1634011
0.1636312
0.1638646
0.1641061
0.1643605
0.164633
0.1649296
0.165257
0.1656222
0.1660344
0.166504
0.1670422
0.1676581
0.1683438
0.1690022
0.1691369
0.1665665
0.1566297
0.1027073
0.142144
0.1427246
0.1443857
0.1458828
0.1472951
0.1485795
0.1497403
0.1507971
0.1517675
0.152665
0.1534998
0.1542796
0.1550102
0.1556964
0.156342
0.1569499
0.1575228
0.1580626
0.1585711
0.1590497
0.1594991
0.1599202
0.1603137
0.1606804
0.1610213
0.1613379
0.1616322
0.161907
0.1621654
0.1624108
0.1626474
0.1628788
0.1631095
0.163344
0.1635865
0.1638419
0.1641159
0.1644143
0.164744
0.1651129
0.1655305
0.1660086
0.1665602
0.1671978
0.1679175
0.168623
0.1687593
0.1660522
0.1551498
0.09527402
0.142106
0.1426694
0.1443075
0.1457791
0.147165
0.1484231
0.149558
0.1505894
0.151535
0.1524083
0.1532193
0.1539759
0.1546838
0.1553476
0.1559712
0.1565576
0.1571094
0.1576286
0.158117
0.1585761
0.1590071
0.159411
0.1597887
0.1601413
0.1604701
0.1607767
0.1610631
0.1613317
0.1615855
0.1618277
0.162062
0.162292
0.1625217
0.1627554
0.1629973
0.1632526
0.1635266
0.1638255
0.1641565
0.1645277
0.1649495
0.1654343
0.1659972
0.1666533
0.1674067
0.1681854
0.1685536
0.1662706
0.1568272
0.1014405
0.1420622
0.142606
0.144218
0.1456603
0.1470164
0.1482447
0.1493505
0.1503533
0.1512711
0.1521173
0.152902
0.1536329
0.1543159
0.1549555
0.1555554
0.1561187
0.156648
0.1571454
0.1576129
0.1580518
0.1584637
0.1588497
0.1592109
0.1595487
0.1598644
0.1601599
0.1604369
0.1606979
0.1609454
0.1611827
0.1614129
0.1616396
0.1618665
0.1620977
0.1623377
0.1625912
0.1628638
0.1631617
0.1634923
0.1638643
0.1642883
0.1647776
0.1653483
0.1660169
0.1667908
0.1676114
0.1680863
0.1659471
0.1565071
0.1031449
0.1420123
0.1425338
0.1441162
0.1455256
0.146848
0.1480431
0.1491162
0.1500873
0.1509743
0.1517906
0.1525464
0.1532493
0.1539051
0.1545184
0.1550928
0.1556315
0.156137
0.1566115
0.157057
0.157475
0.1578669
0.1582342
0.1585783
0.1589005
0.1592023
0.1594854
0.1597517
0.1600035
0.1602433
0.160474
0.1606983
0.16092
0.1611424
0.1613696
0.1616059
0.161856
0.1621255
0.1624207
0.1627493
0.16312
0.1635442
0.1640357
0.1646115
0.1652906
0.1660847
0.1669477
0.1675304
0.1656329
0.1567176
0.1025492
0.1419555
0.1424519
0.144001
0.1453735
0.1466584
0.1478164
0.1488535
0.1497896
0.1506427
0.1514263
0.1521506
0.152823
0.1534495
0.1540345
0.1545817
0.1550942
0.1555745
0.1560248
0.1564473
0.1568433
0.1572146
0.1575627
0.1578888
0.1581944
0.1584812
0.1587509
0.1590053
0.1592465
0.159477
0.1596993
0.1599163
0.1601312
0.1603476
0.1605691
0.1608
0.161045
0.1613097
0.1616004
0.1619248
0.1622921
0.1627137
0.1632039
0.1637808
0.1644646
0.16527
0.1661593
0.166808
0.1651059
0.1566974
0.1021398
0.1418909
0.142359
0.1438709
0.1452022
0.1464455
0.1475627
0.1485601
0.1494579
0.1502741
0.1510221
0.1517122
0.1523518
0.1529466
0.1535013
0.1540195
0.1545042
0.154958
0.1553829
0.1557811
0.1561542
0.1565039
0.1568317
0.157139
0.1574273
0.1576982
0.1579533
0.1581946
0.1584239
0.1586437
0.1588562
0.1590644
0.1592712
0.1594798
0.1596939
0.1599177
0.1601558
0.1604138
0.1606979
0.161016
0.1613772
0.161793
0.162278
0.16285
0.1635291
0.1643293
0.1652099
0.165837
0.1640632
0.1554931
0.1026503
0.141817
0.1422534
0.1437237
0.1450094
0.1462068
0.1472791
0.1482331
0.1490892
0.1498653
0.1505749
0.1512281
0.1518324
0.1523935
0.1529159
0.1534032
0.1538584
0.1542841
0.1546824
0.1550553
0.1554045
0.1557316
0.1560382
0.1563257
0.1565957
0.1568497
0.1570893
0.1573162
0.1575325
0.1577403
0.1579419
0.1581397
0.1583366
0.1585359
0.1587411
0.1589561
0.1591855
0.1594348
0.1597102
0.1600194
0.1603717
0.1607786
0.1612542
0.161816
0.1624831
0.163267
0.1641216
0.164699
0.1628213
0.1541291
0.1030382
0.1417316
0.1421323
0.1435563
0.1447914
0.1459384
0.1469618
0.1478687
0.1486797
0.1494126
0.1500809
0.1506946
0.1512611
0.1517862
0.1522742
0.1527288
0.1531529
0.1535491
0.1539194
0.1542658
0.15459
0.1548936
0.1551781
0.1554451
0.1556958
0.1559318
0.1561549
0.1563666
0.1565686
0.1567631
0.1569521
0.1571382
0.157324
0.1575125
0.1577071
0.1579115
0.1581304
0.158369
0.1586334
0.1589313
0.1592718
0.1596663
0.1601287
0.1606763
0.1613274
0.1620921
0.1629229
0.1634699
0.1615704
0.1529815
0.1032015
0.1416317
0.1419919
0.1433642
0.1445435
0.1456354
0.1466057
0.1474619
0.1482243
0.1489109
0.1495349
0.1501063
0.1506326
0.1511194
0.1515711
0.1519912
0.1523825
0.1527477
0.1530887
0.1534074
0.1537055
0.1539846
0.1542461
0.1544914
0.154722
0.1549393
0.1551448
0.15534
0.1555268
0.1557069
0.1558823
0.1560554
0.1562287
0.1564049
0.1565873
0.1567796
0.156986
0.1572117
0.1574628
0.1577466
0.1580723
0.1584509
0.1588965
0.1594258
0.1600573
0.1608013
0.161611
0.1621401
0.1602552
0.1518305
0.1033857
0.1415128
0.1418266
0.1431409
0.1442588
0.1452907
0.1462038
0.1470055
0.1477161
0.1483531
0.1489299
0.1494565
0.1499401
0.1503864
0.1507997
0.1511834
0.1515404
0.151873
0.1521834
0.1524732
0.1527442
0.1529977
0.1532353
0.1534582
0.1536677
0.1538653
0.1540524
0.1542303
0.1544007
0.1545654
0.1547261
0.154885
0.1550444
0.155207
0.1553757
0.155554
0.1557461
0.1559569
0.1561922
0.1564592
0.1567667
0.1571258
0.1575503
0.158057
0.1586646
0.1593844
0.1601722
0.1606868
0.158826
0.1505823
0.1035984
0.1413724
0.14163
0.1428779
0.1439277
0.1448948
0.1457466
0.1464903
0.1471455
0.1477299
0.1482567
0.1487356
0.1491741
0.1495776
0.1499505
0.1502961
0.1506171
0.1509159
0.1511943
0.1514542
0.1516969
0.151924
0.1521367
0.1523363
0.152524
0.1527011
0.1528688
0.1530285
0.1531817
0.15333
0.1534749
0.1536185
0.1537629
0.1539104
0.1540639
0.1542268
0.1544027
0.1545963
0.1548133
0.1550605
0.1553465
0.155682
0.1560806
0.1565593
0.1571371
0.1578269
0.1585876
0.1590843
0.157249
0.1492025
0.1038366
0.1412348
0.141405
0.1425658
0.1435375
0.1444344
0.1452211
0.1459032
0.1464999
0.1470285
0.1475022
0.1479308
0.1483217
0.1486803
0.1490108
0.1493165
0.1496
0.1498636
0.1501089
0.1503377
0.1505513
0.150751
0.1509381
0.1511136
0.1512786
0.1514344
0.1515821
0.1517229
0.151858
0.151989
0.1521172
0.1522445
0.1523726
0.152504
0.152641
0.1527867
0.1529446
0.153119
0.1533152
0.1535395
0.1538003
0.1541077
0.1544751
0.1549193
0.1554596
0.1561104
0.156834
0.1573032
0.1554893
0.1476589
0.1041083
0.1412707
0.1412135
0.1422054
0.143074
0.1438928
0.1446105
0.1452275
0.1457622
0.1462317
0.1466493
0.1470248
0.1473657
0.1476772
0.1479635
0.1482278
0.1484724
0.1486995
0.1489107
0.1491075
0.1492911
0.1494627
0.1496234
0.1497741
0.1499159
0.1500498
0.1501768
0.1502979
0.1504143
0.1505272
0.1506379
0.150748
0.150859
0.1509731
0.1510923
0.1512194
0.1513577
0.1515108
0.1516837
0.1518822
0.152114
0.1523887
0.1527189
0.1531209
0.153614
0.1542134
0.1548848
0.1553092
0.1535051
0.1459079
0.1044268
0.1419942
0.141265
0.1418275
0.1425276
0.143254
0.1438968
0.1444443
0.144913
0.1453198
0.1456782
0.145998
0.1462865
0.146549
0.1467895
0.147011
0.1472156
0.1474053
0.1475815
0.1477456
0.1478986
0.1480415
0.1481753
0.1483008
0.1484189
0.1485305
0.1486363
0.1487373
0.1488344
0.1489287
0.1490213
0.1491134
0.1492066
0.1493024
0.1494029
0.1495102
0.1496273
0.1497573
0.1499047
0.1500745
0.1502737
0.150511
0.1507978
0.1511494
0.1515841
0.1521166
0.1527145
0.1530676
0.1512485
0.1438925
0.104816
0.1436744
0.1417426
0.1415025
0.1419352
0.1425299
0.14308
0.1435487
0.1439459
0.1442861
0.1445821
0.1448438
0.1450782
0.1452904
0.1454841
0.1456619
0.145826
0.1459778
0.1461187
0.1462498
0.146372
0.1464861
0.1465929
0.146693
0.1467873
0.1468764
0.1469609
0.1470415
0.1471192
0.1471947
0.1472688
0.1473427
0.1474175
0.1474946
0.1475756
0.1476623
0.1477571
0.1478628
0.1479829
0.1481218
0.1482854
0.1484811
0.148719
0.1490123
0.1493769
0.1498251
0.1503236
0.1505681
0.1486873
0.1415354
0.1053196
0.1451924
0.1419492
0.1413072
0.1415038
0.1418307
0.1422116
0.1425763
0.142894
0.1431642
0.1433962
0.143599
0.1437791
0.1439411
0.1440883
0.1442231
0.1443472
0.1444619
0.1445683
0.1446672
0.1447593
0.1448453
0.1449258
0.1450013
0.1450723
0.1451394
0.1452031
0.145264
0.1453226
0.1453795
0.1454356
0.1454915
0.1455482
0.1456067
0.1456682
0.1457343
0.1458066
0.1458876
0.1459798
0.1460869
0.1462134
0.1463655
0.146551
0.1467805
0.1470664
0.1474155
0.1477894
0.1478835
0.1458677
0.1387898
0.1060316
0.1617298
0.1442629
0.1419498
0.1417443
0.1412683
0.1412192
0.1414139
0.1416431
0.1418449
0.1420166
0.1421647
0.142295
0.1424113
0.1425164
0.1426124
0.1427005
0.1427818
0.1428572
0.1429272
0.1429924
0.1430532
0.1431101
0.1431635
0.1432138
0.1432613
0.1433063
0.1433494
0.1433909
0.1434313
0.143471
0.1435107
0.1435509
0.1435925
0.1436364
0.1436836
0.1437354
0.1437935
0.14386
0.1439374
0.1440293
0.1441401
0.1442758
0.1444437
0.1446519
0.1449012
0.145147
0.1450964
0.1431842
0.1373611
0.1073219
0.1680598
0.1617297
0.1451932
0.1436762
0.1419972
0.1412754
0.1412419
0.1413825
0.1415266
0.14165
0.1417554
0.1418472
0.1419286
0.1420018
0.1420683
0.1421293
0.1421855
0.1422376
0.1422858
0.1423308
0.1423727
0.1424119
0.1424487
0.1424833
0.142516
0.1425471
0.1425767
0.1426053
0.1426331
0.1426605
0.1426878
0.1427156
0.1427443
0.1427747
0.1428073
0.1428433
0.1428838
0.1429302
0.1429845
0.1430491
0.1431273
0.1432233
0.1433422
0.1434884
0.1436572
0.1437884
0.1436436
0.1430368
0.1451465
0.1081992
0.150702
0.1446525
0.1407963
0.1341931
0.1327586
0.1326084
0.1327313
0.1328885
0.1330314
0.1331553
0.1332632
0.1333586
0.1334441
0.1335218
0.1335931
0.1336588
0.1337197
0.1337765
0.1338294
0.1338789
0.1339251
0.1339684
0.1340089
0.1340469
0.1340825
0.134116
0.1341478
0.134178
0.134207
0.1342352
0.1342631
0.1342912
0.1343202
0.1343506
0.1343835
0.1344198
0.1344608
0.1345082
0.1345639
0.1346305
0.134711
0.1348084
0.1349239
0.13505
0.1351499
0.1350933
0.1345278
0.132883
0.1292838
0.1112633
0.1439498
0.1367977
0.1345255
0.1330035
0.1326999
0.1328345
0.1330615
0.1332781
0.1334659
0.1336277
0.133769
0.1338945
0.1340075
0.1341105
0.1342051
0.1342925
0.1343737
0.1344494
0.13452
0.134586
0.1346478
0.1347055
0.1347596
0.1348102
0.1348578
0.1349025
0.1349447
0.1349848
0.1350234
0.1350609
0.1350979
0.1351351
0.1351734
0.1352137
0.1352571
0.135305
0.1353591
0.1354214
0.1354946
0.135582
0.1356873
0.1358149
0.1359674
0.1361387
0.1362906
0.136279
0.1356285
0.1330405
0.1257762
0.1083711
0.1361319
0.13399
0.1332422
0.1331291
0.1333853
0.1337406
0.1340774
0.1343684
0.1346167
0.1348314
0.1350203
0.1351891
0.1353419
0.1354816
0.1356104
0.1357296
0.1358405
0.1359438
0.1360404
0.1361306
0.136215
0.136294
0.1363678
0.1364369
0.1365017
0.1365626
0.13662
0.1366745
0.1367267
0.1367774
0.1368273
0.1368775
0.136929
0.1369832
0.1370414
0.1371056
0.1371778
0.1372609
0.1373581
0.1374738
0.137613
0.1377816
0.1379841
0.1382165
0.1384409
0.1385023
0.1378627
0.1349438
0.1263922
0.1056621
0.134239
0.1333017
0.1332356
0.1336083
0.1341257
0.1346233
0.1350535
0.135418
0.1357299
0.1360015
0.1362422
0.1364586
0.1366554
0.1368359
0.1370026
0.1371573
0.1373013
0.1374356
0.1375612
0.1376786
0.1377883
0.137891
0.137987
0.1380767
0.1381607
0.1382395
0.1383137
0.138384
0.1384513
0.1385164
0.1385806
0.1386449
0.1387107
0.1387799
0.1388541
0.1389357
0.1390274
0.1391326
0.1392553
0.1394008
0.1395755
0.1397864
0.1400398
0.1403328
0.1406271
0.1407593
0.1401577
0.1371357
0.1280493
0.1039654
0.133241
0.1329708
0.133462
0.1341341
0.1348101
0.1354087
0.1359168
0.1363486
0.1367213
0.1370485
0.1373406
0.1376046
0.1378457
0.1380675
0.1382728
0.1384635
0.1386414
0.1388075
0.1389627
0.139108
0.1392439
0.1393709
0.1394896
0.1396004
0.1397041
0.1398011
0.1398924
0.1399786
0.140061
0.1401405
0.1402187
0.1402969
0.1403769
0.1404607
0.1405505
0.1406491
0.1407596
0.140886
0.1410331
0.1412069
0.1414146
0.1416645
0.1419635
0.1423093
0.1426617
0.1428491
0.1422746
0.1391728
0.1296481
0.1027306
0.1327989
0.1329245
0.1337563
0.1346166
0.1354023
0.1360803
0.1366562
0.1371493
0.1375786
0.1379587
0.1383001
0.1386102
0.1388944
0.1391566
0.1393999
0.1396263
0.1398377
0.1400353
0.1402202
0.1403933
0.1405552
0.1407065
0.1408478
0.1409797
0.1411027
0.1412178
0.1413256
0.1414274
0.1415243
0.1416177
0.1417091
0.1418005
0.1418938
0.1419913
0.1420957
0.1422099
0.1423377
0.1424835
0.1426526
0.1428517
0.1430886
0.1433721
0.1437096
0.1440981
0.1444948
0.1447199
0.1441548
0.1409675
0.131048
0.1017591
0.1327638
0.1330654
0.1340632
0.135036
0.1359029
0.1366483
0.1372848
0.1378343
0.1383166
0.1387464
0.1391345
0.1394886
0.1398143
0.1401156
0.1403957
0.1406569
0.140901
0.1411295
0.1413435
0.141544
0.1417315
0.1419068
0.1420704
0.1422228
0.1423648
0.1424973
0.1426211
0.1427376
0.1428481
0.1429544
0.1430582
0.1431616
0.143267
0.143377
0.1434944
0.1436227
0.1437659
0.1439287
0.1441171
0.144338
0.1445996
0.1449111
0.1452796
0.145701
0.1461295
0.1463778
0.1458084
0.1425337
0.1322651
0.1009539
0.1328767
0.1332582
0.1343441
0.1353935
0.1363266
0.1371319
0.137824
0.1384259
0.1389575
0.1394341
0.1398664
0.1402623
0.1406275
0.1409663
0.1412818
0.1415766
0.1418525
0.1421112
0.1423537
0.1425809
0.1427936
0.1429923
0.1431776
0.1433501
0.1435104
0.1436595
0.1437985
0.1439287
0.1440519
0.1441698
0.1442847
0.1443989
0.144515
0.1446359
0.1447647
0.1449052
0.1450617
0.1452393
0.145444
0.1456831
0.1459651
0.146299
0.1466916
0.1471377
0.1475881
0.1478488
0.1472667
0.1439072
0.1333311
0.1002625
0.1330107
0.1334402
0.134587
0.1356979
0.1366892
0.1375491
0.1382927
0.1389433
0.1395212
0.1400416
0.1405156
0.140951
0.1413538
0.1417283
0.1420779
0.142405
0.1427117
0.1429996
0.1432697
0.1435231
0.1437603
0.1439819
0.1441884
0.1443802
0.1445581
0.144723
0.1448762
0.1450191
0.1451536
0.1452821
0.1454067
0.1455302
0.1456555
0.1457856
0.1459242
0.146075
0.1462427
0.1464324
0.1466506
0.1469045
0.1472027
0.1475542
0.1479653