/*--------------------------------*- C++ -*----------------------------------*\
| =========                 |                                                 |
| \\      /  F ield         | OpenFOAM: The Open Source CFD Toolbox           |
|  \\    /   O peration     | Version:  2506                                  |
|   \\  /    A nd           | Website:  www.openfoam.com                      |
|    \\/     M anipulation  |                                                 |
\*---------------------------------------------------------------------------*/
FoamFile
{
    version     2.0;
    format      ascii;
    arch        "LSB;label=32;scalar=64";
    class       volScalarField;
    location    "60/airRegion";
    object      nut;
}
// * * * * * * * * * * * * * * * * * * * * * * * * * * * * * * * * * * * * * //

dimensions      [0 2 -1 0 0 0 0];

internalField   nonuniform List<scalar> 
260661
(
0.09679697
0.1004861
0.1015562
0.1003553
0.1004641
0.1005063
0.1005155
0.1005176
0.1005172
0.1005157
0.1005139
0.1005119
0.1005099
0.100508
0.100506
0.1005041
0.1005023
0.1005006
0.1004989
0.1004973
0.1004957
0.1004943
0.1004929
0.1004916
0.1004904
0.1004892
0.1004882
0.1004872
0.1004862
0.1004854
0.1004846
0.1004838
0.1004831
0.1004823
0.1004816
0.1004808
0.10048
0.100479
0.1004778
0.1004761
0.1004733
0.1004678
0.1004543
0.1004164
0.1002968
0.09988406
0.09836502
0.09255721
0.07207722
0.01477351
0.1000556
0.09967594
0.1002533
0.1004339
0.1005132
0.1005326
0.1005368
0.1005368
0.1005348
0.100532
0.1005288
0.1005255
0.1005222
0.1005189
0.1005157
0.1005126
0.1005095
0.1005066
0.1005038
0.1005011
0.1004985
0.1004961
0.1004938
0.1004916
0.1004895
0.1004876
0.1004857
0.100484
0.1004824
0.1004809
0.1004795
0.1004781
0.1004767
0.1004754
0.100474
0.1004724
0.1004708
0.1004688
0.1004665
0.1004634
0.1004588
0.1004508
0.100434
0.1003911
0.1002652
0.09985634
0.09841492
0.09293944
0.07165443
0.0147341
0.09864342
0.09984827
0.1004166
0.1005384
0.1005587
0.1005608
0.1005584
0.1005538
0.1005477
0.1005412
0.1005344
0.1005276
0.1005209
0.1005144
0.100508
0.1005019
0.1004959
0.1004902
0.1004847
0.1004794
0.1004744
0.1004696
0.1004651
0.1004609
0.1004568
0.100453
0.1004495
0.1004461
0.1004429
0.1004399
0.1004369
0.1004341
0.1004312
0.1004283
0.1004253
0.100422
0.1004183
0.1004141
0.100409
0.1004026
0.1003938
0.1003804
0.1003558
0.1003014
0.1001571
0.09971953
0.09824921
0.09279359
0.0716462
0.01463457
0.09898068
0.1000588
0.1004957
0.1005653
0.100568
0.1005628
0.1005548
0.1005448
0.1005337
0.1005221
0.1005104
0.1004988
0.1004874
0.1004763
0.1004655
0.100455
0.100445
0.1004353
0.1004259
0.100417
0.1004085
0.1004005
0.1003928
0.1003855
0.1003787
0.1003723
0.1003662
0.1003604
0.100355
0.1003498
0.1003448
0.1003398
0.1003348
0.1003298
0.1003244
0.1003186
0.1003121
0.1003046
0.1002956
0.1002846
0.10027
0.100249
0.1002142
0.1001447
0.09997672
0.09950035
0.09797443
0.09249331
0.07167692
0.01458158
0.1000889
0.1004176
0.1005559
0.1005711
0.1005654
0.1005548
0.1005408
0.1005247
0.1005073
0.1004895
0.1004717
0.100454
0.1004367
0.1004197
0.1004033
0.1003874
0.100372
0.1003572
0.100343
0.1003294
0.1003164
0.1003041
0.1002924
0.1002813
0.1002708
0.100261
0.1002517
0.1002429
0.1002346
0.1002266
0.1002189
0.1002113
0.1002036
0.1001957
0.1001874
0.1001784
0.1001683
0.1001567
0.100143
0.1001262
0.1001045
0.1000744
0.1000275
0.09994109
0.09974762
0.09923199
0.09765285
0.09215787
0.07166125
0.01454576
0.1004637
0.1005295
0.1005657
0.1005648
0.100555
0.100539
0.1005187
0.1004957
0.1004713
0.1004464
0.1004215
0.1003968
0.1003725
0.1003489
0.1003258
0.1003035
0.1002819
0.1002611
0.1002411
0.1002219
0.1002036
0.1001861
0.1001696
0.1001539
0.1001392
0.1001253
0.1001122
0.1000998
0.1000881
0.1000769
0.100066
0.1000553
0.1000446
0.1000335
0.1000218
0.1000091
0.09999488
0.09997864
0.09995949
0.09993619
0.09990664
0.09986672
0.09980703
0.09970316
0.09948491
0.09893378
0.09731183
0.09182028
0.07162252
0.0145187
0.1005181
0.1005403
0.1005601
0.1005551
0.1005409
0.1005188
0.1004915
0.1004611
0.1004291
0.1003965
0.1003639
0.1003315
0.1002996
0.1002685
0.1002381
0.1002086
0.10018
0.1001525
0.1001259
0.1001004
0.100076
0.1000528
0.1000308
0.10001
0.09999034
0.09997188
0.09995453
0.09993819
0.09992271
0.09990793
0.09989362
0.09987954
0.09986537
0.0998508
0.09983541
0.09981873
0.09980016
0.09977895
0.09975406
0.099724
0.0996863
0.09963632
0.09956386
0.09944317
0.09920211
0.09862037
0.09696578
0.09149
0.07157023
0.01449684
0.1005185
0.100537
0.1005536
0.1005447
0.100525
0.1004963
0.1004616
0.1004235
0.1003836
0.1003429
0.1003021
0.1002615
0.1002216
0.1001824
0.1001441
0.1001069
0.1000708
0.1000358
0.1000021
0.0999697
0.09993868
0.09990912
0.09988105
0.09985454
0.09982959
0.09980617
0.09978421
0.09976357
0.09974408
0.0997255
0.09970756
0.09968993
0.09967223
0.09965403
0.09963485
0.09961408
0.09959101
0.09956474
0.09953406
0.09949723
0.09945149
0.09939175
0.09930711
0.09917082
0.09890935
0.09830178
0.09662281
0.09117081
0.07150914
0.01447831
0.1005165
0.1005341
0.1005475
0.1005341
0.1005084
0.1004728
0.1004307
0.1003847
0.1003367
0.1002876
0.1002384
0.1001893
0.1001409
0.1000934
0.1000468
0.1000014
0.0999572
0.09991438
0.09987301
0.09983319
0.09979502
0.09975862
0.09972407
0.09969144
0.0996608
0.09963211
0.09960528
0.09958016
0.09955652
0.09953405
0.09951242
0.09949119
0.09946994
0.09944813
0.09942515
0.09940033
0.09937282
0.0993416
0.09930528
0.09926195
0.09920858
0.09913968
0.09904383
0.09889343
0.09861397
0.09798453
0.09628729
0.09086397
0.07144255
0.01446201
0.1005152
0.1005316
0.1005415
0.1005233
0.1004916
0.1004492
0.1003996
0.1003458
0.1002895
0.100232
0.1001742
0.1001166
0.1000595
0.1000033
0.09994816
0.09989423
0.09984168
0.09979063
0.09974119
0.09969352
0.09964778
0.09960411
0.09956269
0.09952362
0.09948699
0.0994528
0.09942096
0.09939127
0.09936346
0.09933713
0.09931186
0.09928714
0.09926242
0.09923709
0.09921047
0.09918176
0.09915001
0.09911408
0.09907247
0.09902309
0.09896268
0.09888548
0.09877956
0.09861655
0.09832094
0.09767175
0.09595855
0.09056475
0.07136925
0.01444715
0.1005138
0.100529
0.1005355
0.1005126
0.1004751
0.100426
0.1003691
0.1003074
0.100243
0.1001772
0.1001108
0.1000445
0.09997871
0.09991374
0.09984984
0.09978722
0.09972604
0.09966646
0.09960865
0.09955281
0.09949913
0.09944787
0.09939924
0.09935345
0.09931063
0.09927082
0.0992339
0.09919968
0.09916777
0.09913771
0.09910897
0.09908094
0.09905297
0.09902436
0.09899432
0.09896198
0.09892631
0.09888604
0.09883958
0.09878471
0.09871803
0.09863349
0.09851866
0.09834419
0.09803272
0.09736133
0.09562444
0.09024762
0.07126813
0.01443294
0.1005122
0.1005262
0.1005295
0.1005022
0.1004591
0.1004035
0.1003395
0.1002703
0.1001979
0.1001238
0.100049
0.0999741
0.0998996
0.09982586
0.09975318
0.09968176
0.09961181
0.09954353
0.09947712
0.09941284
0.09935096
0.09929181
0.09923572
0.099183
0.09913386
0.09908836
0.09904643
0.09900779
0.09897197
0.09893842
0.09890649
0.09887543
0.09884451
0.09881293
0.09877979
0.09874417
0.09870494
0.09866077
0.09860999
0.0985503
0.09847816
0.09838728
0.09826464
0.09807925
0.09774977
0.0970454
0.09525441
0.08984031
0.07106647
0.01441254
0.1005106
0.1005234
0.1005237
0.1004922
0.1004438
0.1003821
0.1003113
0.1002347
0.1001547
0.1000726
0.09998949
0.09990615
0.09982309
0.09974069
0.09965928
0.09957909
0.09950033
0.09942326
0.09934812
0.09927522
0.09920494
0.0991377
0.09907396
0.09901415
0.09895862
0.0989075
0.09886069
0.09881784
0.09877841
0.0987417
0.09870692
0.09867321
0.0986397
0.0986055
0.09856966
0.09853114
0.09848877
0.09844119
0.09838666
0.09832282
0.09824606
0.0981499
0.09802068
0.0978253
0.09747602
0.09672585
0.09483469
0.08928516
0.07077824
0.01442581
0.100509
0.1005207
0.1005182
0.1004827
0.1004294
0.1003618
0.1002846
0.1002011
0.1001136
0.1000238
0.09993281
0.09984132
0.09974995
0.09965911
0.09956913
0.09948028
0.0993928
0.09930697
0.09922307
0.09914147
0.09906267
0.09898721
0.09891571
0.09884877
0.09878687
0.09873023
0.09867876
0.09863203
0.09858935
0.09854987
0.09851264
0.09847669
0.098441
0.0984046
0.09836645
0.09832545
0.0982804
0.09822989
0.09817216
0.09810484
0.0980243
0.09792402
0.09779011
0.09758848
0.0972278
0.09644988
0.09449038
0.08883313
0.0706396
0.01454486
0.1005074
0.1005181
0.100513
0.1004739
0.1004159
0.1003429
0.1002596
0.1001695
0.1000751
0.09997805
0.09987947
0.09978019
0.09968085
0.09958188
0.09948362
0.09938635
0.09929035
0.09919589
0.09910332
0.09901308
0.09892576
0.09884206
0.09876278
0.09868873
0.09862056
0.09855861
0.09850277
0.09845251
0.09840701
0.09836521
0.09832599
0.09828822
0.09825078
0.09821258
0.09817252
0.09812946
0.09808215
0.09802918
0.09796878
0.09789859
0.09781501
0.09771168
0.0975751
0.09737268
0.09701806
0.09626844
0.09439703
0.08892741
0.07067309
0.01441618
0.100506
0.1005157
0.1005082
0.1004657
0.1004035
0.1003255
0.1002365
0.1001403
0.1000394
0.09993554
0.09982987
0.09972327
0.0996164
0.09950971
0.09940357
0.09929826
0.09919405
0.09909126
0.09899026
0.09889156
0.09879587
0.09870404
0.09861709
0.09853607
0.09846182
0.09839482
0.09833497
0.09828161
0.09823371
0.09819004
0.09814926
0.09811009
0.09807128
0.09803166
0.09799005
0.0979453
0.09789614
0.09784113
0.09777855
0.09770603
0.09762008
0.09751452
0.09737652
0.09717565
0.09683237
0.09612241
0.09435851
0.08909068
0.07084329
0.01439707
0.1005046
0.1005134
0.1005038
0.1004583
0.1003921
0.1003095
0.1002155
0.1001137
0.1000068
0.09989662
0.09978438
0.099671
0.09955713
0.09944326
0.09932974
0.09921689
0.09910495
0.09899427
0.09888524
0.09877846
0.09867472
0.09857506
0.09848072
0.09839299
0.09831298
0.09824128
0.09817779
0.09812173
0.09807186
0.09802669
0.09798472
0.09794449
0.09790463
0.0978639
0.09782106
0.09777494
0.09772426
0.0976676
0.09760324
0.09752889
0.0974411
0.09733383
0.09719459
0.09699387
0.09665465
0.09595853
0.09422742
0.08902264
0.07081941
0.01441965
0.1005034
0.1005114
0.1004998
0.1004516
0.1003819
0.1002952
0.1001965
0.1000897
0.09997739
0.09986151
0.09974332
0.09962376
0.09950353
0.0993831
0.09926285
0.09914307
0.09902404
0.09890608
0.09878963
0.09867534
0.0985641
0.09845712
0.09835587
0.09826188
0.09817652
0.09810054
0.09803382
0.09797542
0.0979239
0.09787753
0.09783462
0.09779355
0.09775286
0.09771122
0.09766738
0.09762013
0.0975682
0.09751019
0.09744442
0.09736866
0.09727951
0.09717098
0.09703043
0.09682743
0.09648108
0.09575859
0.09393561
0.08848805
0.07001576
0.01450952
0.1005023
0.1005096
0.1004963
0.1004457
0.1003729
0.1002826
0.1001798
0.1000685
0.09995138
0.09983043
0.09970696
0.09958191
0.09945602
0.09932976
0.09920352
0.09907758
0.09895223
0.09882779
0.09870473
0.09858372
0.09846578
0.09835224
0.09824478
0.0981452
0.09805506
0.09797525
0.09790566
0.09784521
0.09779223
0.09774481
0.09770108
0.09765926
0.09761783
0.09757539
0.09753067
0.09748244
0.09742945
0.09737032
0.09730343
0.09722661
0.09713654
0.09702725
0.09688565
0.0966788
0.09631407
0.09550776
0.09332413
0.08655835
0.06577925
0.01462016
0.1005013
0.100508
0.1004933
0.1004406
0.1003652
0.1002717
0.1001653
0.1000501
0.09992889
0.09980357
0.09967552
0.09954574
0.09941495
0.09928368
0.0991523
0.09902108
0.09889034
0.09876038
0.09863169
0.098505
0.09838138
0.0982623
0.09814958
0.09804523
0.097951
0.09786789
0.09779576
0.09773342
0.09767906
0.09763059
0.09758599
0.09754339
0.09750118
0.09745793
0.09741234
0.0973632
0.09730926
0.09724916
0.09718135
0.09710374
0.09701312
0.09690362
0.09676192
0.09655287
0.09617082
0.09525599
0.09240473
0.08187907
0.05206396
0.02166083
0.1005005
0.1005067
0.1004907
0.1004363
0.1003586
0.1002625
0.1001531
0.1000347
0.09991002
0.09978105
0.09964919
0.09951547
0.09938064
0.09924523
0.09910963
0.09897413
0.09883903
0.09870465
0.09857149
0.09844034
0.09831227
0.09818886
0.09807203
0.09796392
0.09786639
0.09778051
0.09770615
0.09764203
0.09758624
0.0975366
0.09749095
0.0974474
0.09740426
0.09736009
0.09731357
0.0972635
0.09720862
0.09714764
0.09707901
0.09700077
0.09690982
0.0968005
0.09665996
0.09645463
0.09608799
0.09526265
0.09301298
0.08612273
0.06545198
0.0145755
0.1004999
0.1005056
0.1004886
0.1004328
0.1003534
0.1002551
0.1001434
0.1000223
0.09989488
0.09976299
0.0996281
0.09949128
0.09935329
0.09921468
0.09907585
0.09893712
0.09879879
0.0986612
0.09852486
0.09839057
0.09825944
0.09813305
0.09801339
0.09790262
0.09780266
0.0977146
0.09763829
0.09757245
0.09751513
0.09746409
0.09741715
0.0973724
0.09732811
0.09728284
0.09723526
0.09718417
0.09712834
0.09706647
0.09699707
0.09691823
0.09682699
0.09671786
0.09657838
0.09637591
0.09601742
0.09522436
0.09314121
0.08703336
0.06832049
0.01445494
0.1004994
0.1005048
0.1004871
0.1004302
0.1003494
0.1002495
0.100136
0.100013
0.0998835
0.09974946
0.09961237
0.09947331
0.09933307
0.09919222
0.0990512
0.09891034
0.09876996
0.09863041
0.09849223
0.09835619
0.09822343
0.09809551
0.09797436
0.09786211
0.09776062
0.09767098
0.09759303
0.09752553
0.09746652
0.09741384
0.09736535
0.09731911
0.09727342
0.09722685
0.09717805
0.09712584
0.09706898
0.09700619
0.09693601
0.09685654
0.09676489
0.09665568
0.09651654
0.09631445
0.0959529
0.09513226
0.09289605
0.08612894
0.06634294
0.01438778
0.100499
0.1005042
0.100486
0.1004284
0.1003467
0.1002458
0.1001311
0.1000068
0.09987596
0.09974055
0.09960207
0.09946165
0.09932009
0.09917799
0.09903582
0.09889393
0.09875268
0.09861243
0.09847374
0.09833736
0.09820439
0.09807635
0.09795504
0.09784247
0.09774039
0.09764979
0.09757052
0.09750141
0.09744064
0.09738613
0.09733583
0.09728786
0.09724056
0.09719249
0.09714235
0.09708892
0.09703097
0.09696723
0.09689622
0.09681605
0.09672383
0.09661421
0.09647488
0.09627355
0.09591788
0.09513068
0.09305938
0.08697621
0.0683025
0.01445605
0.1004988
0.1005039
0.1004854
0.1004275
0.1003453
0.1002439
0.1001286
0.1000037
0.09987228
0.09973628
0.09959726
0.09945635
0.09931441
0.09917204
0.09902975
0.09888794
0.09874696
0.09860725
0.09846933
0.09833393
0.09820213
0.09807528
0.09795507
0.09784328
0.09774149
0.09765056
0.09757035
0.09749981
0.09743728
0.09738085
0.09732859
0.09727872
0.09722966
0.09717999
0.0971284
0.09707369
0.09701462
0.09694991
0.09687806
0.09679716
0.0967043
0.09659409
0.09645409
0.09625152
0.09589144
0.0950793
0.09285592
0.08601656
0.06542078
0.01458159
0.1004988
0.1005039
0.1004854
0.1004274
0.1003453
0.1002438
0.1001286
0.1000038
0.09987251
0.09973671
0.09959799
0.09945747
0.09931605
0.09917437
0.09903296
0.09889227
0.09875266
0.09861459
0.09847858
0.09834536
0.09821588
0.09809138
0.09797334
0.0978633
0.0977626
0.09767197
0.09759129
0.09751963
0.09745552
0.09739725
0.09734308
0.09729132
0.09724049
0.09718922
0.09713621
0.09708025
0.0970201
0.09695447
0.09688184
0.09680025
0.0967068
0.09659606
0.09645547
0.0962512
0.09588021
0.09498762
0.09218192
0.08177446
0.05209684
0.02169739
0.1004989
0.1005041
0.1004859
0.1004282
0.1003465
0.1002457
0.1001311
0.1000071
0.09987663
0.09974181
0.09960418
0.09946491
0.09932488
0.0991848
0.09904521
0.09890656
0.09876929
0.09863383
0.09850073
0.09837063
0.09824442
0.09812319
0.09800817
0.09790068
0.09780179
0.09771209
0.09763145
0.0975591
0.09749377
0.09743396
0.09737809
0.09732465
0.09727222
0.09721949
0.0971652
0.09710813
0.09704703
0.0969806
0.09690731
0.09682516
0.09673124
0.09662018
0.09647986
0.09627876
0.09592636
0.0951411
0.09299212
0.08629367
0.0656488
0.01464055
0.1004992
0.1005046
0.1004868
0.1004299
0.1003491
0.1002493
0.100136
0.1000134
0.09988454
0.09975144
0.0996157
0.09947847
0.09934067
0.09920303
0.09906609
0.09893036
0.09879627
0.09866427
0.09853488
0.09840871
0.09828653
0.09816927
0.09805796
0.09795364
0.09785718
0.097769
0.09768898
0.09761647
0.09755041
0.09748948
0.0974323
0.0973775
0.09732377
0.09726985
0.09721451
0.09715654
0.09709471
0.09702768
0.09695389
0.09687134
0.09677709
0.0966658
0.09652561
0.09632648
0.0959849
0.09525352
0.09335985
0.08771269
0.06908638
0.01461675
0.1004997
0.1005054
0.1004883
0.1004324
0.100353
0.1002548
0.1001433
0.1000228
0.09989618
0.09976552
0.0996324
0.09949799
0.0993632
0.09922877
0.09909527
0.09896322
0.09883306
0.09870524
0.09858024
0.09845863
0.09834106
0.09822831
0.09812123
0.09802061
0.0979271
0.09784099
0.09776219
0.09769013
0.09762391
0.09756241
0.09750443
0.09744874
0.0973941
0.09733935
0.09728329
0.09722471
0.09716242
0.09709504
0.09702099
0.09693824
0.09684381
0.09673225
0.09659134
0.09638951
0.09603617
0.09524988
0.09310019
0.08640078
0.06574476
0.01464042
0.1005003
0.1005064
0.1004903
0.1004357
0.1003581
0.100262
0.100153
0.1000352
0.09991146
0.09978394
0.09965416
0.09952329
0.09939224
0.09926175
0.09913241
0.09900473
0.09887915
0.09875611
0.09863608
0.09851953
0.09840703
0.09829922
0.09819676
0.09810024
0.09801014
0.09792666
0.09784966
0.09777866
0.09771292
0.09765148
0.09759328
0.09753721
0.09748217
0.09742702
0.09737063
0.09731184
0.09724941
0.09718199
0.09710797
0.09702528
0.09693091
0.09681923
0.09667747
0.09647153
0.09609781
0.09520018
0.09238464
0.08195442
0.05224352
0.02162189
0.1005011
0.1005077
0.1004927
0.1004399
0.1003645
0.1002711
0.100165
0.1000505
0.09993031
0.09980659
0.09968084
0.0995542
0.09942758
0.0993017
0.09917716
0.09905448
0.09893406
0.09881634
0.09870173
0.09859067
0.09848361
0.09838108
0.09828355
0.09819149
0.09810521
0.09802484
0.0979502
0.0978809
0.09781629
0.09775554
0.09769773
0.09764187
0.09758695
0.09753191
0.09747566
0.09741707
0.0973549
0.0972878
0.09721413
0.09713184
0.09703782
0.0969264
0.09678479
0.09657963
0.09621473
0.0953926
0.09314514
0.08624533
0.0655136
0.0145784
0.100502
0.1005092
0.1004957
0.1004449
0.1003721
0.1002818
0.1001793
0.1000686
0.09995265
0.09983337
0.09971229
0.09959053
0.09946899
0.09934835
0.09922921
0.09911205
0.09899732
0.09888538
0.09877661
0.09867137
0.09857007
0.09847308
0.09838079
0.0982935
0.09821141
0.09813458
0.09806283
0.09799581
0.09793295
0.09787353
0.09781674
0.09776169
0.09770747
0.09765306
0.09759744
0.0975395
0.09747802
0.09741163
0.09733871
0.09725716
0.09716384
0.09705306
0.09691203
0.09670761
0.09634577
0.09554511
0.09344109
0.08726417
0.06840412
0.01444528
0.100503
0.1005109
0.1004991
0.1004507
0.1003809
0.1002942
0.1001958
0.1000896
0.09997838
0.09986415
0.09974836
0.09963209
0.0995162
0.09940138
0.09928818
0.09917707
0.09906846
0.09896271
0.09886013
0.09876104
0.09866575
0.09857456
0.09848775
0.0984055
0.09832794
0.09825506
0.09818668
0.09812247
0.09806194
0.09800445
0.09794927
0.09789562
0.09784264
0.09778941
0.09773494
0.09767813
0.09761778
0.09755255
0.09748079
0.09740035
0.09730809
0.09719823
0.0970579
0.09685343
0.096487
0.09565582
0.09338929
0.08651798
0.06642354
0.01436242
0.1005042
0.1005129
0.100503
0.1004572
0.1003909
0.1003083
0.1002144
0.1001132
0.1000074
0.09989878
0.09978885
0.09967864
0.09956896
0.09946048
0.09935372
0.09924911
0.09914703
0.09904781
0.09895174
0.09885906
0.09877003
0.09868486
0.09860374
0.09852679
0.09845405
0.09838549
0.0983209
0.09825999
0.0982023
0.09814729
0.09809428
0.09804258
0.0979914
0.09793987
0.09788704
0.09783185
0.09777311
0.09770949
0.09763931
0.0975604
0.0974695
0.0973608
0.09722155
0.09701951
0.09666475
0.09589145
0.09388121
0.08793318
0.06922111
0.01434872
0.1005055
0.100515
0.1005073
0.1004645
0.100402
0.100324
0.1002352
0.1001395
0.1000395
0.0999371
0.09983356
0.09972993
0.09962696
0.09952529
0.0994254
0.0993277
0.09923252
0.09914015
0.09905084
0.09896482
0.09888225
0.09880329
0.09872806
0.09865662
0.09858897
0.09852504
0.09846461
0.09840741
0.09835303
0.09830097
0.09825066
0.09820142
0.09815255
0.09810322
0.09805252
0.09799942
0.09794279
0.09788125
0.09781313
0.09773618
0.09764705
0.09753976
0.09740153
0.09720109
0.09685479
0.09612465
0.0942897
0.08885401
0.0704886
0.01437221
0.1005069
0.1005174
0.100512
0.1004725
0.1004143
0.1003412
0.1002579
0.1001683
0.1000747
0.09997889
0.09988224
0.09978565
0.09968985
0.0995954
0.09950277
0.09941232
0.09932436
0.09923912
0.09915682
0.09907763
0.09900169
0.0989291
0.09885993
0.0987942
0.09873187
0.09867282
0.09861686
0.09856373
0.09851306
0.09846439
0.0984172
0.09837089
0.09832478
0.0982781
0.09823
0.09817949
0.09812544
0.09806648
0.09800093
0.09792646
0.09783961
0.09773413
0.09759675
0.09739541
0.09704569
0.09631145
0.09448374
0.08910229
0.07082521
0.0143994
0.1005084
0.1005199
0.100517
0.1004812
0.1004275
0.1003598
0.1002826
0.1001993
0.1001126
0.1000239
0.09993459
0.09984546
0.09975721
0.09967035
0.09958531
0.0995024
0.0994219
0.09934401
0.09926891
0.09919673
0.09912756
0.09906146
0.09899849
0.09893861
0.09888176
0.09882782
0.09877659
0.09872782
0.09868118
0.09863626
0.09859256
0.09854956
0.09850661
0.09846302
0.09841796
0.09837048
0.09831949
0.09826363
0.0982012
0.09812985
0.09804599
0.09794317
0.09780767
0.09760643
0.0972527
0.09650473
0.0946413
0.08919108
0.07091314
0.01443794
0.10051
0.1005226
0.1005224
0.1004905
0.1004418
0.1003798
0.1003089
0.1002326
0.1001531
0.1000719
0.09999027
0.09990895
0.09982856
0.09974959
0.09967239
0.09959726
0.09952442
0.09945404
0.09938627
0.0993212
0.0992589
0.09919941
0.09914272
0.09908879
0.09903755
0.09898887
0.09894256
0.09889837
0.09885601
0.0988151
0.09877522
0.09873584
0.09869642
0.09865628
0.09861465
0.09857064
0.09852317
0.09847092
0.09841221
0.09834468
0.09826471
0.0981658
0.09803435
0.09783789
0.09749175
0.09675958
0.09492715
0.08949951
0.07098186
0.01441687
0.1005116
0.1005252
0.100528
0.1005003
0.1004568
0.1004009
0.1003368
0.1002677
0.1001958
0.1001225
0.1000488
0.09997561
0.09990335
0.09983248
0.09976332
0.09969611
0.09963106
0.09956829
0.09950792
0.09945003
0.09939464
0.09934177
0.09929141
0.09924349
0.09919793
0.0991546
0.09911332
0.09907387
0.09903597
0.09899929
0.09896345
0.09892797
0.09889235
0.09885597
0.09881812
0.09877794
0.09873443
0.0986863
0.09863191
0.09856894
0.09849384
0.09840025
0.09827506
0.09808738
0.09775681
0.09705607
0.09528118
0.08990191
0.07114062
0.01441759
0.100513
0.1005278
0.1005338
0.1005104
0.1004725
0.1004231
0.100366
0.1003045
0.1002404
0.1001752
0.1001098
0.1000449
0.09998089
0.09991825
0.09985724
0.09979804
0.09974082
0.09968569
0.09963273
0.09958199
0.0995335
0.09948723
0.09944317
0.09940125
0.09936138
0.09932342
0.09928723
0.0992526
0.09921927
0.09918696
0.09915531
0.09912391
0.0990923
0.09905993
0.09902613
0.09899012
0.09895094
0.09890739
0.09885789
0.09880022
0.09873092
0.09864389
0.09852656
0.09834942
0.09803505
0.09736093
0.09562276
0.09024835
0.07127449
0.01443347
0.1005143
0.1005302
0.1005395
0.1005207
0.1004886
0.1004459
0.1003962
0.1003424
0.1002865
0.1002295
0.1001725
0.1001159
0.1000603
0.100006
0.09995312
0.09990192
0.0998525
0.09980496
0.09975934
0.09971567
0.09967398
0.09963422
0.09959638
0.09956037
0.09952612
0.09949351
0.09946238
0.09943257
0.09940384
0.09937594
0.09934857
0.09932135
0.09929389
0.09926568
0.09923614
0.09920454
0.09917001
0.09913144
0.09908735
0.09903564
0.09897302
0.09889368
0.09878555
0.0986201
0.09832152
0.09766857
0.09595085
0.09055383
0.07136309
0.01444735
0.1005152
0.1005322
0.1005449
0.1005308
0.1005048
0.100469
0.1004269
0.100381
0.1003333
0.1002847
0.100236
0.1001879
0.1001406
0.1000945
0.1000497
0.1000064
0.09996466
0.09992455
0.09988611
0.09984935
0.09981428
0.09978087
0.09974908
0.09971884
0.09969008
0.09966268
0.09963652
0.09961145
0.09958726
0.09956375
0.09954065
0.09951764
0.09949437
0.09947041
0.09944523
0.09941821
0.09938856
0.09935527
0.099317
0.09927181
0.09921664
0.09914599
0.09904834
0.09889596
0.09861411
0.09798161
0.09628065
0.09085462
0.07143693
0.01446201
0.1005158
0.1005335
0.1005497
0.1005405
0.1005206
0.1004918
0.1004574
0.1004195
0.1003799
0.1003396
0.1002993
0.1002595
0.1002204
0.1001824
0.1001455
0.1001098
0.1000755
0.1000426
0.100011
0.09998092
0.09995222
0.0999249
0.09989891
0.09987421
0.09985071
0.09982833
0.09980696
0.09978647
0.09976669
0.09974745
0.09972852
0.09970965
0.09969052
0.09967079
0.09965
0.09962761
0.09960295
0.09957512
0.09954295
0.09950469
0.09945756
0.09939645
0.09931043
0.09917264
0.09890944
0.09829973
0.0966183
0.09116467
0.07150554
0.01447827
0.1005163
0.1005346
0.1005536
0.100549
0.1005352
0.1005135
0.1004866
0.1004567
0.1004252
0.1003931
0.1003609
0.1003291
0.1002979
0.1002676
0.1002382
0.1002099
0.1001826
0.1001565
0.1001315
0.1001077
0.100085
0.1000634
0.1000429
0.1000234
0.1000049
0.09998724
0.09997039
0.09995423
0.09993863
0.09992346
0.09990852
0.09989361
0.09987849
0.09986286
0.09984635
0.09982853
0.09980882
0.09978648
0.0997605
0.09972939
0.09969066
0.09963968
0.09956621
0.09944445
0.09920218
0.09861904
0.09696291
0.09148624
0.07156809
0.0144968
0.1004862
0.1005316
0.1005567
0.1005555
0.1005474
0.1005327
0.1005132
0.1004909
0.1004672
0.1004429
0.1004184
0.1003942
0.1003705
0.1003474
0.1003251
0.1003036
0.1002829
0.1002631
0.1002442
0.1002262
0.100209
0.1001927
0.1001772
0.1001625
0.1001486
0.1001353
0.1001226
0.1001104
0.1000987
0.1000873
0.100076
0.1000648
0.1000534
0.1000417
0.1000292
0.1000157
0.1000008
0.09998379
0.09996389
0.09993986
0.09990959
0.09986897
0.09980858
0.09970397
0.09948493
0.0989329
0.09731002
0.09181799
0.07162123
0.01451867
0.1001324
0.1004585
0.1005527
0.1005583
0.1005555
0.1005473
0.1005348
0.1005197
0.1005032
0.1004861
0.1004687
0.1004515
0.1004346
0.1004181
0.1004021
0.1003868
0.100372
0.1003579
0.1003444
0.1003315
0.1003193
0.1003077
0.1002967
0.1002863
0.1002763
0.1002669
0.1002579
0.1002493
0.100241
0.100233
0.1002251
0.1002172
0.1002092
0.1002009
0.1001921
0.1001826
0.100172
0.10016
0.1001458
0.1001284
0.1001063
0.1000758
0.1000285
0.09994154
0.09974756
0.09923138
0.09765169
0.09215645
0.07166045
0.01454574
0.09869619
0.1001137
0.1005099
0.1005537
0.1005583
0.1005553
0.1005486
0.1005398
0.1005296
0.1005188
0.1005077
0.1004965
0.1004855
0.1004747
0.1004642
0.1004541
0.1004443
0.100435
0.1004262
0.1004177
0.1004097
0.1004021
0.1003948
0.100388
0.1003815
0.1003753
0.1003695
0.1003639
0.1003585
0.1003533
0.1003482
0.1003431
0.1003379
0.1003326
0.100327
0.1003209
0.1003141
0.1003064
0.1002972
0.1002858
0.100271
0.1002497
0.1002146
0.1001449
0.09997659
0.0994999
0.09797368
0.09249242
0.07167642
0.01458156
0.09857114
0.09996902
0.1004213
0.1005099
0.1005526
0.1005566
0.1005534
0.1005492
0.1005441
0.1005383
0.1005321
0.1005257
0.1005193
0.100513
0.1005068
0.1005008
0.1004951
0.1004896
0.1004843
0.1004793
0.1004745
0.10047
0.1004657
0.1004617
0.1004579
0.1004543
0.1004508
0.1004475
0.1004444
0.1004414
0.1004385
0.1004356
0.1004326
0.1004296
0.1004265
0.1004231
0.1004193
0.1004149
0.1004097
0.1004031
0.1003942
0.1003806
0.100356
0.1003014
0.100157
0.09971921
0.09824876
0.09279302
0.07164588
0.01463457
0.1010821
0.1000965
0.09996905
0.1001137
0.1004584
0.1005315
0.1005345
0.1005333
0.1005318
0.1005296
0.1005269
0.100524
0.1005209
0.1005178
0.1005147
0.1005117
0.1005087
0.1005059
0.1005032
0.1005006
0.1004981
0.1004958
0.1004936
0.1004915
0.1004896
0.1004877
0.100486
0.1004844
0.1004828
0.1004813
0.1004799
0.1004785
0.1004771
0.1004757
0.1004743
0.1004727
0.100471
0.100469
0.1004666
0.1004635
0.1004589
0.1004508
0.1004339
0.1003909
0.100265
0.09985608
0.09841462
0.09293893
0.07165425
0.01473411
0.09730867
0.1010816
0.09857121
0.09869655
0.1001326
0.1004862
0.1005162
0.1005156
0.1005149
0.1005139
0.1005124
0.1005108
0.100509
0.1005071
0.1005052
0.1005034
0.1005016
0.1004999
0.1004983
0.1004967
0.1004952
0.1004938
0.1004925
0.1004913
0.1004901
0.1004891
0.1004881
0.1004871
0.1004862
0.1004854
0.1004846
0.1004838
0.1004831
0.1004824
0.1004816
0.1004808
0.10048
0.100479
0.1004778
0.1004761
0.1004733
0.1004677
0.1004542
0.1004162
0.1002966
0.09988385
0.09836477
0.0925569
0.07207707
0.01477351
0.09501
0.09734948
0.09843344
0.09945089
0.09972198
0.09977334
0.09978602
0.09979355
0.09979887
0.09980252
0.09980508
0.09980693
0.09980828
0.09980927
0.09981
0.09981055
0.09981095
0.09981125
0.09981148
0.09981164
0.09981177
0.09981186
0.09981193
0.099812
0.09981206
0.09981213
0.09981222
0.09981233
0.09981248
0.09981267
0.09981292
0.09981323
0.09981362
0.09981411
0.09981471
0.09981544
0.09981632
0.09981732
0.09981835
0.09981901
0.09981806
0.09981162
0.0997877
0.09970862
0.09945328
0.0986223
0.09587838
0.08684162
0.06038331
0.01498088
0.0971365
0.09870731
0.09939848
0.09973915
0.09983031
0.09984898
0.09985621
0.09986095
0.09986348
0.09986428
0.099864
0.09986305
0.09986168
0.09986006
0.09985828
0.09985641
0.09985452
0.09985263
0.09985077
0.09984896
0.0998472
0.09984552
0.09984391
0.09984239
0.09984097
0.09983963
0.0998384
0.09983726
0.09983622
0.09983527
0.0998344
0.09983362
0.0998329
0.09983225
0.09983165
0.09983107
0.09983049
0.09982982
0.09982888
0.09982715
0.09982317
0.09981266
0.09978284
0.09969448
0.09942437
0.0985763
0.09585625
0.08703736
0.06006835
0.01479663
0.09807923
0.0992129
0.09971878
0.09985409
0.09987736
0.09988373
0.099888
0.09988968
0.09988869
0.09988579
0.09988173
0.099877
0.0998719
0.09986664
0.09986133
0.09985607
0.09985091
0.09984588
0.09984101
0.09983633
0.09983183
0.09982754
0.09982347
0.09981961
0.09981598
0.09981257
0.09980937
0.09980637
0.09980356
0.09980091
0.09979839
0.09979598
0.09979362
0.09979128
0.09978888
0.09978636
0.09978362
0.09978046
0.09977659
0.09977126
0.0997627
0.099746
0.09970713
0.09960427
0.09930901
0.09841727
0.0956322
0.08675911
0.05983179
0.0146098
0.09854933
0.09944893
0.09982171
0.09990611
0.09992175
0.09992829
0.09993069
0.09992865
0.09992309
0.09991527
0.09990614
0.09989631
0.09988618
0.09987599
0.09986588
0.09985598
0.09984633
0.09983698
0.09982796
0.0998193
0.09981101
0.09980311
0.09979561
0.09978851
0.09978182
0.09977551
0.09976959
0.09976402
0.09975875
0.09975375
0.09974895
0.09974428
0.09973966
0.09973497
0.0997301
0.0997249
0.09971916
0.09971258
0.09970466
0.09969442
0.09967965
0.09965467
0.09960399
0.09948275
0.09915667
0.09821265
0.09535303
0.08646018
0.0599313
0.01449124
0.09942596
0.09976002
0.09988512
0.09992837
0.09994521
0.09995241
0.09995182
0.09994487
0.09993356
0.09991959
0.09990415
0.099888
0.0998716
0.09985526
0.09983915
0.09982341
0.09980811
0.09979331
0.09977905
0.09976536
0.09975225
0.09973977
0.09972791
0.09971669
0.09970611
0.09969615
0.09968678
0.09967796
0.09966962
0.09966167
0.09965401
0.09964652
0.09963906
0.09963145
0.0996235
0.09961496
0.0996055
0.09959468
0.09958179
0.09956556
0.0995433
0.09950858
0.09944442
0.09930331
0.09894631
0.09795534
0.09504331
0.08619626
0.06012901
0.01440596
0.09974924
0.09985934
0.09989691
0.09993337
0.09995327