/*--------------------------------*- C++ -*----------------------------------*\
| =========                 |                                                 |
| \\      /  F ield         | OpenFOAM: The Open Source CFD Toolbox           |
|  \\    /   O peration     | Version:  2506                                  |
|   \\  /    A nd           | Website:  www.openfoam.com                      |
|    \\/     M anipulation  |                                                 |
\*---------------------------------------------------------------------------*/
FoamFile
{
    version     2.0;
    format      ascii;
    arch        "LSB;label=32;scalar=64";
    class       volScalarField;
    location    "500/air";
    object      alphat;
}
// * * * * * * * * * * * * * * * * * * * * * * * * * * * * * * * * * * * * * //

dimensions      [1 -1 -1 0 0 0 0];

internalField   nonuniform List<scalar> 
33752
(
0.0107132
0.008005108
0.00765664
0.007689667
0.007806145
0.007940584
0.008070264
0.008187461
0.008290224
0.008379052
0.008455376
0.008520947
0.008577545
0.00862685
0.008670445
0.008709792
0.008746108
0.008780286
0.008812877
0.008844191
0.008874388
0.008903559
0.008931754
0.008959013
0.008985385
0.009010987
0.009036089
0.009061328
0.009088029
0.009115053
0.01072419
0.008006316
0.007686112
0.007720526
0.007826355
0.00794878
0.008068351
0.008177537
0.00827407
0.008358053
0.00843058
0.008493143
0.008547337
0.008594714
0.008636763
0.008674852
0.008710131
0.008743437
0.008775303
0.008806025
0.008835762
0.008864597
0.008892583
0.008919776
0.008946292
0.008972405
0.008998706
0.009026414
0.009058033
0.009093853
0.01072885
0.008036859
0.007733489
0.007768436
0.007864809
0.007974586
0.008082042
0.008180847
0.008268846
0.008345864
0.008412675
0.008470498
0.008520741
0.008564846
0.008604215
0.008640142
0.008673702
0.008705683
0.008736587
0.008766693
0.008796139
0.008824979
0.008853238
0.008880963
0.008908305
0.008935643
0.008963783
0.008994273
0.009029966
0.009070353
0.01073176
0.008065927
0.00777476
0.007812534
0.007903874
0.008004394
0.008101484
0.008190434
0.008269654
0.008339042
0.008399267
0.008451421
0.008496809
0.008536821
0.008572822
0.008606067
0.008637594
0.008668168
0.008698268
0.008728142
0.008757867
0.008787418
0.008816734
0.008845788
0.008874696
0.008903845
0.008934091
0.008967041
0.009005502
0.009048021
0.0107341
0.008088839
0.007805905
0.00784692
0.007936187
0.008030801
0.008120115
0.008200762
0.00827186
0.008333631
0.008386871
0.008432719
0.008472523
0.00850771
0.008539692
0.008569752
0.008598906
0.008627978
0.008657464
0.008687556
0.008718221
0.008749278
0.008780494
0.00881168
0.008842831
0.008874266
0.008906788
0.008941918
0.008982274
0.009025716
0.01073627
0.008106466
0.00782765
0.007871098
0.007959645
0.008050577
0.008134218
0.008208098
0.008271958
0.008326415
0.008372528
0.008411633
0.008445234
0.008474878
0.008502099
0.008528369
0.00855496
0.008582664
0.00861192
0.008642812
0.008675128
0.00870847
0.00874238
0.008776475
0.008810582
0.008844842
0.008879911
0.008917151
0.008958971
0.009002754
0.01073839
0.008120047
0.007841832
0.007886504
0.007974648
0.00806303
0.008142319
0.008210544
0.00826789
0.008315336
0.008354244
0.008386218
0.008412929
0.008436348
0.00845838
0.008480681
0.00850461
0.008531088
0.00856054
0.008592904
0.008627719
0.008664273
0.008701788
0.008739589
0.008777255
0.008814772
0.008852622
0.008891991
0.008935072
0.008978891
0.01074044
0.008130633
0.007850363
0.007895056
0.007982577
0.008068819
0.00814443
0.008207653
0.008258939
0.008299539
0.008331089
0.008355419
0.008374818
0.00839152
0.008407782
0.008425632
0.008446694
0.008472066
0.008502177
0.008536779
0.008575057
0.008615863
0.008657994
0.008700405
0.008742392
0.008783717
0.008824692
0.008866337
0.008910673
0.008954457
0.01074237
0.008138982
0.007854858
0.007898554
0.007985039
0.008069172
0.008141377
0.008199921
0.008245376
0.008279146
0.008303112
0.008319585
0.008331099
0.008340403
0.008350219
0.00836305
0.008380932
0.008405264
0.008436506
0.008474185
0.008517015
0.008563242
0.008611084
0.008659042
0.008706087
0.008751765
0.008796228
0.008840359
0.008886044
0.008929835
0.01074416
0.008145597
0.007856581
0.00789854
0.007983587
0.008065505
0.008134394
0.008188429
0.008228196
0.008255183
0.008271517
0.008279769
0.008282899
0.008284108
0.008286725
0.008293997
0.008310239
0.00833499
0.008367637
0.00840758
0.008454534
0.008507185
0.008561866
0.008616301
0.008669084
0.008719581
0.008767833
0.008814636
0.008861783
0.008905674
0.01074575
0.00815079
0.007856504
0.007896292
0.007979623
0.008059248
0.008124907
0.008174616
0.008208876
0.008229305
0.008238085
0.008238035
0.008232438
0.008225057
0.008223089
0.008229717
0.008244512
0.008268822
0.008303031
0.008346284
0.008396641
0.008451684
0.008512128
0.008573639
0.00863266
0.008688264
0.008740459
0.008790021
0.008838705
0.008882795
0.01074709
0.008154736
0.007855368
0.007892855
0.007974375
0.008051758
0.008114394
0.008160109
0.008189361
0.008203667
0.008205324
0.008197275
0.008183109
0.008171203
0.008166525
0.008168959
0.008181082
0.008204833
0.008240686
0.008287521
0.008342885
0.008403584
0.008466543
0.008533373
0.008598581
0.008659262
0.008715315
0.008767556
0.008817754
0.008862119
0.01074814
0.008157522
0.007853725
0.007889059
0.007968872
0.008044238
0.008104245
0.008146567
0.00817152
0.008180591
0.008176066
0.00816095
0.008140313
0.00812641
0.00811691
0.008115234
0.008124899
0.008148167
0.008185543
0.008235663
0.008295622
0.008361649
0.008429899
0.008498451
0.008568985
0.008634242
0.008693738
0.008748357
0.008799918
0.008844587
0.01074885
0.008159173
0.007851963
0.007885525
0.007963913
0.00803766
0.008095637
0.008135379
0.008157106
0.008162244
0.008153049
0.008132592
0.008110044
0.008092037
0.008078492
0.008073643
0.008081422
0.008104321
0.008142878
0.008195547
0.008259057
0.008329197
0.008401676
0.008472981
0.008546218
0.00861494
0.008677098
0.008733548
0.008786171
0.00883108
0.0107492
0.008159709
0.007850331
0.007882656
0.007960031
0.008032692
0.008089385
0.008127563
0.008147398
0.008150275
0.008138424
0.008114952
0.008091392
0.008070964
0.008055119
0.008048481
0.008055195
0.008077884
0.008117112
0.00817123
0.00823676
0.008309237
0.008384119
0.008457548
0.008531804
0.008602474
0.008666167
0.008723687
0.008776956
0.008822151
0.01074919
0.008159111
0.007848927
0.007880628
0.007957467
0.008029638
0.00808587
0.008123616
0.008143044
0.008145544
0.00813335
0.008109574
0.008085769
0.008065129
0.008049123
0.008042381
0.008049049
0.008071752
0.00811105
0.008165292
0.00823099
0.008303671
0.008378779
0.008452445
0.008526907
0.008597791
0.008661675
0.008719349
0.008772735
0.008818007
0.01074879
0.00815736
0.007847709
0.007879384
0.007956148
0.008028412
0.008084996
0.008123425
0.008143923
0.008147925
0.008137701
0.008116338
0.008093069
0.008074442
0.008060436
0.0080553
0.008062969
0.008085934
0.008124725
0.008177782
0.008241812
0.008312573
0.008385736
0.008457747
0.008531618
0.008600982
0.008663702
0.00872061
0.008773579
0.008818777
0.01074804
0.008154434
0.007846502
0.007878641
0.007955697
0.008028535
0.008086171
0.008126256
0.008149113
0.008156249
0.008149982
0.008133343
0.008111499
0.008096592
0.008086363
0.00808426
0.008093803
0.008117251
0.00815509
0.008205927
0.008266812
0.008333922
0.008403354
0.008473069
0.008544813
0.008611164
0.008671601
0.00872698
0.0087791
0.00882413
0.01074697
0.008150303
0.007844997
0.0078779
0.007955455
0.008029186
0.008088386
0.008130865
0.008157081
0.008168603
0.008167768
0.008157565
0.008141625
0.008128445
0.00812283
0.008124766
0.008136843
0.008160982
0.008197624
0.008245594
0.008302373
0.00836468
0.008429345
0.008497845
0.008564761
0.008626988
0.008684366
0.008737675
0.008788641
0.008833462
0.01074559
0.008144899
0.007842746
0.007876462
0.007954514
0.00802925
0.008090291
0.00813564
0.008165859
0.008182578
0.008188088
0.008185256
0.008177418
0.008168381
0.008165442
0.008171614
0.008186559
0.008211584
0.008247023
0.008291938
0.00834429
0.008401532
0.008464108
0.008527938
0.008589176
0.008646785
0.008700703
0.008751643
0.008801298
0.008845903
0.01074396
0.008138136
0.007839175
0.007873454
0.00795177
0.008027407
0.00809034
0.00813876
0.008173324
0.008195646
0.008207919
0.008212794
0.00821329
0.008212646
0.008214204
0.008221203
0.008238012
0.00826394
0.008298383
0.008340615
0.008390072
0.008445592
0.008503263
0.008560649
0.00861621
0.008669208
0.0087196
0.008768107
0.00881644
0.008860938
0.01074215
0.008129868
0.007833575
0.007867846
0.007945973
0.008022225
0.008086926
0.008138421
0.008177424
0.008205498
0.008224633
0.008237188
0.008245793
0.008253201
0.008262121
0.008275018
0.008293865
0.008319966
0.008353671
0.00839437
0.008440625
0.008490511
0.008542074
0.008593655
0.008644087
0.008692798
0.008739843
0.008786019
0.008833113
0.008877617
0.01074019
0.008119867
0.007825099
0.007858482
0.007935788
0.008012257
0.008078526
0.008133039
0.008176486
0.008210311
0.00823628
0.008256359
0.008272742
0.008287707
0.008303441
0.008321892
0.00834458
0.00837248
0.008405878
0.008444356
0.008486915
0.00853221
0.008578847
0.008625604
0.008671624
0.008716541
0.00876056
0.008804601
0.008850536
0.008895169
0.01073815
0.008107808
0.00781277
0.007844119
0.007919879
0.007996174
0.008063877
0.008121444
0.008169437
0.008209075
0.008241824
0.008269295
0.00829317
0.008315293
0.008337401
0.008361046
0.008387435
0.008417333
0.008450995
0.008488167
0.008528179
0.008570103
0.008612948
0.008655846
0.008698214
0.008739895
0.008781261
0.008823392
0.008868368
0.008913144
0.01073608
0.008093267
0.007795523
0.007823543
0.007897092
0.007972995
0.008042234
0.008103157
0.008156064
0.008201804
0.008241441
0.008276194
0.008307395
0.008336387
0.008364532
0.008393129
0.008423163
0.008455272
0.008489719
0.008526386
0.008564838
0.008604443
0.008644512
0.00868445
0.008723919
0.00876291
0.008801958
0.008842321
0.008886286
0.008931142
0.01073406
0.00807576
0.007772389
0.00779586
0.007866843
0.007942539
0.00801384
0.008078839
0.008137393
0.008189814
0.00823666
0.008278723
0.008316988
0.008352554
0.008386532
0.008419912
0.008453548
0.008488045
0.0085237
0.008560503
0.008598195
0.008636355
0.008674512
0.00871226
0.008749398
0.0087861
0.008823042
0.008861634
0.008904372
0.008949013
0.01073204
0.008054819
0.007742952
0.007761164
0.007829914
0.007906262
0.007980719
0.008050971
0.008116232
0.008176092
0.008230534
0.008279943
0.008325033
0.008366719
0.008405986
0.008443766
0.008480843
0.008517779
0.008554893
0.008592258
0.008629747
0.008667099
0.008704005
0.008740212
0.008775635
0.008810503
0.008845541
0.008882244
0.008923288
0.008967113
0.01072971
0.008029976
0.007707938
0.007721564
0.00778961
0.00786832
0.00794755
0.008024494
0.008097534
0.008165428
0.008227591
0.008284105
0.008335536
0.00838274
0.00842668
0.00846829
0.008508367
0.008547509
0.008586088
0.008624257
0.008661981
0.008699102
0.008735404
0.008770701
0.008804938
0.008838328
0.008871542
0.008906008
0.008944449
0.008986232
0.01072591
0.008005278
0.00767143
0.007682492
0.007752924
0.007836457
0.007922217
0.008006954
0.008088209
0.008163977
0.008233282
0.008296071
0.008352907
0.008404693
0.008452453
0.00849718
0.00853973
0.00858076
0.008620705
0.008659782
0.008698027
0.008735344
0.008771565
0.008806519
0.008840115
0.008872454
0.008903986
0.008935809
0.008970291
0.00900759
0.01071539
0.00801187
0.007653103
0.007659292
0.007733998
0.007823839
0.007916373
0.008008075
0.008095919
0.008177541
0.008251842
0.008318799
0.008379059
0.008433622
0.008483607
0.008530094
0.008574017
0.0086161
0.008656839
0.008696507
0.008735184
0.008772808
0.008809228
0.008844257
0.008877737
0.008909606
0.008939993
0.008969411
0.008999063
0.009027688
0.06416582
0.06154094
0.06426188
0.0672609
0.0700702
0.07257737
0.07474771
0.07659581
0.0781557
0.07946608
0.08056555
0.08149102
0.08227647
0.08295214
0.0835437
0.08407194
0.08455297
0.08499855
0.08541679
0.0858127
0.08618869
0.08654496
0.08687991
0.08719048
0.08747222
0.08771909
0.08792233
0.08806804
0.08813275
0.08809683
0.06535057
0.06226014
0.06494536
0.06786188
0.07053951
0.07292375
0.07499845
0.07677571
0.0782829
0.07955334
0.08062196
0.08152325
0.08228993
0.08295149
0.08353332
0.08405599
0.08453534
0.0849828
0.08540599
0.08580935
0.08619463
0.08656137
0.08690731
0.08722871
0.08752049
0.08777575
0.08798444
0.08813039
0.08818593
0.08812736
0.06576655
0.06285508
0.06570345
0.06862258
0.07118437
0.07341919
0.07535415
0.07701341
0.07842421
0.07961654
0.08062186
0.08147197
0.08219763
0.08282723
0.08338548
0.0838926
0.08436404
0.08481073
0.08523948
0.08565365
0.08605368
0.08643772
0.08680211
0.08714189
0.08745083
0.08772094
0.08794094
0.08809301
0.0881474
0.08808091
0.06595081
0.06326368
0.06630617
0.06928647
0.07179078
0.07390924
0.07571201
0.0772441
0.0785406
0.07963335
0.08055342
0.08133158
0.08199772
0.08257969
0.08310197
0.08358466
0.08404301
0.08448732
0.08492333
0.08535275
0.08577406
0.08618322
0.08657453
0.08694111
0.08727518
0.08756749
0.08780567
0.08797092
0.08803258
0.08796809
0.06606276
0.0635261
0.06672185
0.06977588
0.07226309
0.0743042
0.07599995
0.07741542
0.07859687
0.07958185
0.08040426
0.08109635
0.08168903
0.082211
0.08268756
0.08313936
0.08358192
0.08402485
0.08447234
0.08492393
0.08537531
0.08581946
0.0862478
0.086651
0.08701928
0.08734184
0.08760526
0.08779008
0.0878652
0.08780831
0.06613827
0.06368001
0.06697952
0.07009608
0.07258285
0.07457248
0.07618381
0.07749702
0.07856901
0.07944451
0.08016234
0.08075848
0.08126689
0.08171898
0.08214233
0.08255875
0.0829839
0.08342741
0.08389214
0.0843749
0.08486767
0.08535928
0.08583718
0.08628862
0.08670117
0.08706238
0.08735789
0.0875678
0.08766087
0.08761489
0.06618946
0.06375487
0.06711677
0.07027735
0.07276535
0.07471579
0.07625697
0.07747891
0.07844698
0.07921289
0.07982138
0.08031374
0.08072894
0.08110223
0.081464
0.08183958
0.08224655
0.08269444
0.08318432
0.0837094
0.08425669
0.0848096
0.08535055
0.08586266
0.08633054
0.0867397
0.08707464
0.08731511
0.08743003
0.08739746
0.06622331
0.06377395
0.06716687
0.07035294
0.0728368
0.07475141
0.07622929
0.07736625
0.07823372
0.07888945
0.07938434
0.079766
0.08007853
0.08036326
0.08065637
0.08098681
0.08137427
0.08183006
0.08235395
0.08293472
0.08355236
0.08418238
0.08480097
0.08538638
0.08591992
0.08638518
0.08676575
0.08704122
0.08718092
0.08716333
0.06624473
0.06375565
0.06715694
0.07035277
0.07282503
0.07470279
0.07611978
0.07717476
0.07794321
0.0784878
0.07886534
0.07912895
0.07933052
0.0795179
0.07973249
0.08000824
0.08036462
0.08082555
0.08139237
0.08204861
0.08276132
0.08348914
0.08420242
0.08487423
0.0854832
0.08601165
0.08644282
0.08675662
0.08692309
0.08692133
0.06625738
0.06371449
0.06710876
0.07030235
0.07275629
0.07459514
0.07595217
0.07692728
0.0775984
0.07803204
0.07828939
0.07843075
0.07851413
0.07859115
0.07870219
0.07889122
0.07914053
0.07957199
0.08019158
0.08097937
0.08186461
0.08273179
0.08356873
0.08434309
0.08503652
0.08563348
0.08611844
0.08647237
0.08666645
0.0866807
0.066264
0.06366203
0.06703992
0.07022317
0.07265429
0.07445336
0.07575235
0.07665115
0.07722895
0.07755462
0.07769407
0.07771238
0.07766932
0.07760309
0.07749995
0.07749529
0.077685
0.07811884
0.07879865
0.0796905
0.08073164
0.08184627
0.08290081
0.08381024
0.08459853
0.08526714
0.08580656
0.08620041
0.08642157
0.08645124
0.06626667
0.06360745
0.06696464
0.07013315
0.07253988
0.07430081
0.0755463
0.0763756
0.07686823
0.077095
0.07712476
0.07702387
0.07683934
0.07652932
0.07623154
0.07610826
0.07624923
0.07669373
0.07743686
0.07843493
0.07961572
0.08089317
0.08217225
0.08329158
0.0841896
0.08493058
0.08552206
0.08595316
0.08619923
0.08624286
0.06626689
0.06355795
0.06689415
0.07004685
0.07243061
0.07415805
0.075358
0.07612882
0.07655005
0.0766936
0.07662931
0.07641891
0.07606735
0.07553702
0.07509722
0.07488701
0.07499152
0.0754485
0.07624912
0.07734143
0.07864198
0.08005353
0.08147869
0.08282023
0.08383309
0.0846422
0.08527961
0.08574261
0.08600967
0.08606487
0.06626574
0.0635188
0.06683685
0.06997529
0.07234013
0.07404158
0.07520728
0.07593486
0.07630374
0.07638616
0.07625143
0.07595092
0.07541688
0.07476707
0.07423554
0.07396544
0.07404452
0.07451165
0.07535582
0.07651897
0.07790875
0.07941876
0.08094576
0.0823911
0.08354713
0.08441836
0.08509202
0.08557897
0.08586151
0.08592514
0.06626393
0.06349344
0.06679821
0.06992575
0.07227761
0.0739627
0.07510798
0.07581072
0.0761502
0.07619875
0.07602517
0.07567461
0.07504103
0.07432531
0.0737455
0.07344368
0.07350919
0.07398183
0.07484956
0.07605109
0.07748918
0.07905225
0.08063289
0.0821285
0.08336775
0.08427559
0.08497003
0.08547048
0.08576166
0.08582978
0.06626174
0.0634834
0.06678067
0.06990152
0.07224724
0.07392661
0.07506655
0.07576434
0.07609932
0.07614386
0.07596679
0.07561328
0.07497726
0.07425987
0.07367893
0.07337642
0.07344165
0.07391439
0.07478263
0.07598508
0.07742451
0.07898932
0.08057203
0.08206998
0.08331204
0.08422229
0.08491878
0.08542091
0.08571333
0.08578212
0.06625909
0.06348828
0.06678363
0.06990177
0.07224796
0.07393201
0.07508143
0.07579391
0.07614901
0.07621912
0.07607371
0.07576418
0.07522268
0.07456776
0.07403288
0.07376086
0.07383932
0.07430708
0.07515312
0.07631941
0.07771358
0.07922912
0.08076265
0.08221521
0.08337989
0.08425838
0.08493826
0.08543028
0.08571652
0.0857821
0.06625552
0.06350583
0.06680341
0.06992158
0.07227351
0.07397114
0.07514309
0.07588785
0.07628526
0.07640752
0.07632477
0.07609886
0.07573478
0.07519573
0.07475055
0.07453763
0.07464186
0.07510083
0.07590564
0.07700431
0.07831327
0.07973506
0.08117214
0.08252784
0.08355408
0.08437529
0.08502323
0.08549484
0.08576824
0.08582694
0.06625024
0.0635319
0.06683343
0.06995216
0.07231278
0.07403026
0.07523477
0.0760258
0.07648333
0.07667881
0.07668153
0.07655819
0.07635602
0.07603375
0.07572908
0.0756031
0.07574526
0.07619444
0.07694555
0.07795467
0.07914931
0.08044288
0.08173991
0.08288099
0.08379847
0.08455696
0.08516366
0.08560719
0.08586243
0.08591127
0.06624197
0.06356059
0.06686434
0.06998116
0.07235034
0.07409064
0.07533388
0.0761805
0.07671046
0.07699359
0.07709663
0.07708516
0.07701922
0.07693738
0.0768271
0.07682091
0.0770152
0.07745816
0.07815153
0.07906094
0.0801231
0.08126126
0.08234406
0.08328107
0.08409526
0.08478735
0.08534711
0.08575755
0.08599097
0.08602783
0.06622912
0.06358429
0.06688424
0.06999305
0.07236719
0.07412966
0.07541388
0.07632078
0.07692968
0.07730838
0.07751935
0.0776236
0.07767945
0.07773853
0.07784123
0.07803115
0.07829345
0.07873987
0.07938068
0.08019497
0.08111055
0.082012
0.08288487
0.08369456
0.08442127
0.0850483
0.08555921
0.0859342
0.08614383
0.08616725
0.06620962
0.06359368
0.06687872
0.06996942
0.07234144
0.07412222
0.07544634
0.07641453
0.07710455
0.07758109
0.07790219
0.07812203
0.07829272
0.07846184
0.07867027
0.0789513
0.07932374
0.07980934
0.08040841
0.08110296
0.08185839
0.08263148
0.08339058
0.08410687
0.08475738
0.08532312
0.08578628
0.08612593
0.08631143
0.08632086
0.06618085
0.06357762
0.06683084
0.06988916
0.07224897
0.074042
0.07540309
0.07643167
0.07720271
0.0777767
0.07820615
0.07853912
0.07881956
0.0790883
0.07938036
0.07972348
0.08013591
0.08062727
0.08119544
0.08182706
0.08249988
0.08318706
0.08386253
0.08450251
0.08508655
0.08559681
0.08601576
0.0863221
0.08648449
0.08648014
0.06613951
0.06352295
0.06672091
0.06972866
0.07206431
0.07386306
0.07525848
0.07634694
0.07719909
0.07786998
0.07840574
0.07884756
0.07923321
0.07959599
0.07996507
0.08036365
0.08080737
0.08130373
0.08185145
0.0824411
0.08305701
0.08367986
0.08428951
0.08486687
0.08539463
0.08585679
0.08623669
0.08651313
0.0866543
0.08663702
0.0660814
0.06341415
0.06652641
0.06946252
0.07176239
0.07356254
0.07499255
0.07614335
0.07707919
0.0778482
0.07848951
0.0790374
0.0795231
0.07997505
0.08041764
0.08087006
0.08134597
0.08185249
0.0823898
0.08295175
0.08352722
0.08410202
0.08466076
0.08518829
0.08567018
0.08609241
0.08643942
0.08669035
0.08681321
0.08678452
0.06600074
0.06323316
0.06622282
0.06906629
0.07132312
0.07312616
0.07459674
0.07581724
0.0768431
0.07771392
0.07846132
0.07911312
0.07969506
0.08023102
0.0807422
0.08124611
0.08175534
0.08227686
0.08281217
0.08335768
0.08390577
0.08444614
0.08496718
0.08545696
0.08590363
0.0862948
0.08661584
0.08684637
0.08695455
0.08691673
0.06588693
0.06295853
0.06578705
0.0685244
0.0707421
0.07255956
0.07408393
0.07538621
0.0765108
0.07748763
0.07834082
0.07909272
0.07976506
0.08037887
0.08095341
0.08150511
0.08204635
0.08258485
0.08312356
0.08366102
0.08419224
0.08470972
0.08520458
0.08566729
0.08608792
0.08645562
0.08675685
0.08697193
0.08706948
0.08702559
0.06570488
0.06256196
0.06520955
0.06785056
0.07005297
0.0719081
0.0735038
0.07489934
0.07612765
0.07720915
0.07816175
0.07900405
0.07975563
0.08043629
0.08106476
0.08165737
0.08222689
0.08278187
0.08332651
0.08386099
0.08438223
0.08488483
0.08536189
0.08580572
0.08620795
0.086559
0.08684643
0.0870516
0.08714405
0.08709929
0.06529046
0.06200354
0.06453402
0.06713353
0.06936457
0.07128254
0.07295804
0.07444404
0.07576484
0.07693398
0.07796579
0.0788774
0.07968794
0.08041726
0.08108441
0.08170617
0.08229592
0.08286295
0.08341239
0.08394558
0.08446071
0.08495374
0.08541912
0.08585039
0.08624033
0.0865805
0.08685971
0.08706097
0.08715594
0.08711965
0.0640917
0.06130484
0.06395303
0.06660023
0.06888777
0.07086297
0.07259345
0.0741346
0.07550783
0.07672411
0.07779694
0.07874348
0.07958316
0.08033617
0.08102188
0.08165739
0.08225642
0.08282865
0.08337964
0.08391126
0.08442234
0.08490948
0.08536782
0.08579158
0.08617423
0.08650819
0.08678361
0.08698575
0.08709041
0.08707668
0.1006255
0.1058618
0.1154831
0.1257046
0.1351758
0.1434093
0.1503933
0.1562592
0.1611538
0.1652169
0.1685813
0.171372
0.1737046
0.1756813
0.1773889
0.178897
0.1802587
0.1815123
0.1826837
0.1837892
0.1848365
0.1858268
0.1867556
0.1876142
0.18839
0.1890672
0.1896262
0.1900428
0.1902911
0.1903685
0.1018009
0.1078657
0.1177522
0.127712
0.1367176
0.1445239
0.1511715
0.1567807
0.1614798
0.1653933
0.1686423
0.1713437
0.1736072
0.1755315
0.1772012
0.1786844
0.1800333
0.181285
0.1824645
0.1835862
0.184656
0.185673
0.1866308
0.1875186
0.1883222
0.1890238
0.1896016
0.1900283
0.1902746
0.1903384
0.1025726
0.1097185
0.1202178
0.1301907
0.1388269
0.1461589
0.1523562
0.1575771
0.1619543
0.1656054
0.1686424
0.1711734
0.1733016
0.1751208
0.1767125
0.1781431
0.1794631
0.1807082
0.1819007
0.183052
0.1841641
0.1852319
0.1862447
0.1871879
0.188044
0.188792
0.1894071
0.1898588
0.1901154
0.1901771
0.1030384
0.1110106
0.1221247
0.1322998
0.1407796
0.1477687
0.1535619
0.1583833
0.1623951
0.1657255
0.1684879
0.1707886
0.1727274
0.1743962
0.1758748
0.1772285
0.1785068
0.1797434
0.1809571
0.1821546
0.1833318
0.184477
0.1855731
0.1865996
0.187534
0.1883516
0.1890241
0.1895185
0.1898012
0.1898738
0.1033189
0.1118223
0.1234063
0.1338212
0.1422787
0.1490576
0.1545373
0.1590035
0.162657
0.1656485
0.1681029
0.1701328
0.1718416
0.1733236
0.1746606
0.1759189
0.177148
0.1783795
0.1796282
0.1808939
0.1821643
0.1834184
0.18463
0.1857709
0.186812
0.1877239
0.1884749
0.1890297
0.1893533
0.1894469
0.1034812
0.1122895
0.1241845
0.1347977
0.143281
0.1499304
0.1551706
0.1593321
0.1626509
0.1653033
0.1674324
0.1691638
0.1706113
0.1718771
0.1730493
0.1741982
0.1753747
0.1766092
0.1779115
0.1792733
0.180671
0.1820711
0.1834355
0.1847256
0.1859044
0.1869369
0.1877878
0.1884198
0.1887971
0.1889196
0.1035652
0.1125205
0.1245957
0.1353416
0.1438482
0.1504016
0.1554454
0.1593378
0.1623421
0.1646583
0.1664502
0.1678612
0.169021
0.1700449
0.1710311
0.1720576
0.1731794
0.1744274
0.1758064
0.1772975
0.1788622
0.1804509
0.1820097
0.1834872
0.1848368
0.186017
0.1869894
0.1877149
0.1881572
0.1883148
0.1035972
0.1125932
0.1247512
0.1355659
0.1440716
0.1505335
0.1553988
0.1590407
0.1617414
0.1637211
0.1651643
0.1662351
0.1670825
0.1678392
0.1686179
0.1695089
0.1705744
0.1718474
0.1733289
0.1749869
0.1767636
0.1785872
0.1803842
0.1820875
0.18364
0.184994
0.1861076
0.186941
0.1874576
0.1876553
0.1035956
0.1125635
0.1247356
0.135567
0.1440428
0.1504044
0.1550949
0.1584935
0.160895
0.1625358
0.1636199
0.1643328
0.1648452
0.1653099
0.1658578
0.1665937
0.1675902
0.1688905
0.1704991
0.1723681
0.1744096
0.1765208
0.1786029
0.1805702
0.1823552
0.1839048
0.1851754
0.1861274
0.1867253
0.1869664
0.1035736
0.1124724
0.1246137
0.1354234
0.1438446
0.1500953
0.1546104
0.1577702
0.1598769
0.1611797
0.1619
0.1622441
0.162404
0.1625507
0.1628285
0.1633657
0.1642524
0.1655538
0.1673128
0.1694543
0.1718311
0.1742991
0.1767209
0.1789904
0.1810327
0.1827937
0.1842313
0.185308
0.1859903
0.186276
0.103541
0.1123505
0.1244351
0.1351988
0.1435493
0.1496835
0.1540265
0.156957
0.158781
0.1597575
0.1601225
0.1601
0.1598971
0.1596866
0.1596101
0.1598552
0.1606072
0.1619409
0.1638565
0.1662692
0.1690304
0.1719643
0.1748014
0.1774144
0.1797327
0.1817123
0.1833186
0.1845193
0.1852848
0.1856141
0.1035053
0.1122217
0.1242389
0.134945
0.1432193
0.1492401
0.1534235
0.1561448
0.157712
0.1583909
0.1584287
0.158061
0.1574932
0.1568649
0.1564292
0.1564506
0.1571058
0.1584756
0.1605473
0.1632181
0.1663145
0.1696251
0.1729263
0.1759209
0.1785235
0.1807169
0.1824832
0.1837997
0.1846419
0.185011
0.1034719
0.1121036
0.1240551
0.1347034
0.1429059
0.1488266
0.1528739
0.1554198
0.1567728
0.1572032
0.1569652
0.1562966
0.1553882
0.1543769
0.1536585
0.1535003
0.154082
0.1554866
0.1576944
0.1605863
0.1639647
0.167592
0.1712234
0.1746081
0.1774801
0.1798654
0.1817708
0.1831859
0.1840929
0.1844954
0.1034449
0.1120093
0.1239058
0.1345045
0.1426485
0.1484917
0.1524369
0.1548537
0.1560506
0.1563004
0.1558598
0.1549593
0.1537467
0.1524935
0.1515824
0.1512983
0.1518287
0.1532594
0.1555672
0.1586209
0.1622049
0.1660621
0.1699346
0.1735851
0.1766751
0.179211
0.1812217
0.1827102
0.1836647
0.1840916
0.1034267
0.1119469
0.123805
0.1343686
0.1424733
0.1482682
0.1521531
0.1544963
0.1556064
0.1557574
0.1552065
0.1541793
0.1528029
0.151418
0.1504057
0.1500552
0.1505582
0.1520026
0.1543633
0.1575028
0.1611962
0.1651756
0.1691747
0.1729516
0.1761751
0.1787975
0.1808672
0.1823964
0.1833773
0.1838176
0.1034183
0.11192
0.123759
0.1343045
0.1423922
0.1481711
0.1520411
0.1543706
0.1554685
0.155609
0.1550493
0.154015
0.1526333
0.1512446
0.1502299
0.1498779
0.1503802
0.1518246
0.154186
0.1573272
0.1610231
0.1650061
0.1690097
0.1727918
0.1760211
0.1786491
0.1807238
0.1822571
0.183241
0.183683
0.1034195
0.1119276
0.1237662
0.1343098
0.142402
0.1481964
0.152096
0.1544708
0.15563
0.1558472
0.1553794
0.1544571
0.153228
0.1519632
0.1510448
0.1507566
0.1512855
0.1527172
0.1550284
0.1580881
0.161681
0.16555
0.169437
0.1731043
0.1762123
0.1787652
0.1807911
0.1822921
0.1832558
0.1836877
0.1034286
0.1119641
0.1238168
0.1343709
0.1424846
0.1483213
0.1522896
0.1547623
0.1560494
0.1564225
0.1561365
0.1554294
0.154492
0.153461
0.1527307
0.1525669
0.1531484
0.1545574
0.1567744
0.1596799
0.1630769
0.1667274
0.1703862
0.173802
0.1767053
0.1791203
0.181052
0.1824889
0.1834117
0.1838229
0.1034423
0.1120193
0.1238935
0.1344632
0.142608
0.1485054
0.1525719
0.1551845
0.1566532
0.157246
0.1572117
0.1567863
0.1561758
0.1555192
0.155068
0.1550842
0.1557436
0.1571256
0.159217
0.1619143
0.1650439
0.1683939
0.1717399
0.1747827
0.1774328
0.1796703
0.1814756
0.1828241
0.1836896
0.1840715
0.1034563
0.1120786
0.1239717
0.1345521
0.1427274
0.148693
0.1528751
0.1556551
0.1573424
0.1581993
0.1584644
0.1583632
0.1581026
0.1578552
0.1577627
0.1580057
0.158771
0.1601304
0.1620821
0.1645403
0.1673557
0.1703511
0.1732554
0.1759371
0.1783218
0.1803626
0.1820223
0.1832666
0.1840637
0.1844104
0.1034645
0.1121229
0.124019
0.134593
0.1427863
0.1488157
0.1531179
0.1560779
0.1580033
0.1591485
0.1597385
0.1599813
0.1600696
0.1601728
0.1604338
0.1609777
0.1618938
0.1632424
0.1650607
0.1672727
0.1697318
0.1722897
0.1748053
0.177168
0.1792989
0.1811406
0.1826481
0.1837812
0.1845043
0.1848125
0.1034594
0.1121282
0.1239957
0.1345319
0.1427187
0.1487962
0.1532117
0.1563523
0.1585211
0.1599621
0.1608841
0.1614747
0.1619042
0.1623242
0.162862
0.1636191
0.1646644
0.1660368
0.1677363
0.1697109
0.1718692
0.1741038
0.1763107
0.1783997
0.1802988
0.181951
0.1833097
0.1843325
0.1849812
0.1852502
0.1034314
0.1120644
0.1238525
0.1343046
0.1424491
0.1485512
0.1530667
0.1563817
0.1587917
0.1605267
0.1617773
0.162709
0.1634694
0.1641872
0.1649712
0.1659063
0.1670492
0.1684278
0.1700375
0.1718406
0.1737732
0.1757577
0.1777146
0.1795715
0.1812661
0.1827468
0.1839682
0.1848876
0.1854658
0.1856971
0.1033684
0.1118936
0.1235289
0.1338352
0.1418939
0.1479946
0.1525977
0.1560828
0.1587323
0.1607591
0.1623328
0.1635965
0.1646752
0.1656776
0.1666945
0.1677969
0.1690334
0.170428
0.1719785
0.1736585
0.1754225
0.1772132
0.1789701
0.1806353
0.182157
0.1834893
0.1845901
0.1854175
0.1859323
0.1861294
0.1032544
0.1115665
0.1229495
0.1330354
0.1409645
0.1470453
0.151734
0.1553955
0.1582925
0.1606155
0.1625112
0.1641003
0.1654868
0.1667618
0.1680022
0.1692692
0.1706054
0.1720332
0.1735547
0.1751531
0.176796
0.1784415
0.1800435
0.1815566
0.1829381
0.1841483
0.1851485
0.1858982
0.186359
0.1865267
0.1030667
0.1110172
0.1220209
0.1318089
0.139579
0.1456429
0.1504372
0.1543009
0.1574679
0.1601016
0.1623242
0.164235
0.16592
0.167456
0.1689102
0.1703373
0.1717772
0.1732532
0.1747714
0.1763226
0.1778847
0.1794273
0.1809157
0.182314
0.1835875
0.1847019
0.185622
0.1863095
0.1867268
0.186871
0.1027694
0.1101556
0.1206374
0.1300729
0.1376966
0.1437865
0.1487373
0.1528499
0.1563219
0.1592859
0.1618402
0.1640656
0.1660347
0.1678152
0.1694682
0.1710461
0.1725885
0.1741208
0.1756534
0.1771832
0.1786962
0.1801703
0.1815793
0.182895
0.1840888
0.1851313
0.1859907
0.1866313
0.1870168
0.1871447
0.102291
0.1088625
0.1187202
0.1278289
0.1353972
0.1416072
0.1467903
0.1512056
0.1550117
0.1583121
0.1611862
0.1637025
0.1659259
0.1679201
0.1697452
0.171454
0.1730879
0.1746752
0.1762302
0.1777547
0.1792404
0.1806715
0.1820279
0.183287
0.184425
0.1854165
0.1862332
0.186842
0.1872086
0.1873293
0.1014621
0.1070452
0.1163731
0.1253375
0.1330291
0.1394747
0.1449466
0.1496798
0.1538028
0.1574
0.1605411
0.16329
0.1657102
0.1678659
0.169819
0.1716247
0.1733271
0.1749572
0.1765325
0.1780582
0.1795297
0.1809355
0.1822593
0.1834824
0.1845842
0.1855427
0.1863325
0.1869238
0.187285
0.1874102
0.1000319
0.1050356
0.114307