/*--------------------------------*- C++ -*----------------------------------*\
| =========                 |                                                 |
| \\      /  F ield         | OpenFOAM: The Open Source CFD Toolbox           |
|  \\    /   O peration     | Version:  2506                                  |
|   \\  /    A nd           | Website:  www.openfoam.com                      |
|    \\/     M anipulation  |                                                 |
\*---------------------------------------------------------------------------*/
FoamFile
{
    version     2.0;
    format      ascii;
    arch        "LSB;label=32;scalar=64";
    class       volScalarField;
    location    "500/air";
    object      k;
}
// * * * * * * * * * * * * * * * * * * * * * * * * * * * * * * * * * * * * * //

dimensions      [0 2 -2 0 0 0 0];

internalField   nonuniform List<scalar> 
33752
(
0.07416346
0.04135311
0.03820509
0.0386826
0.03984796
0.04115373
0.04241678
0.04356863
0.0445885
0.04547741
0.04624649
0.04691189
0.04749248
0.04800771
0.04847526
0.04890888
0.04931767
0.04970692
0.05007961
0.05043777
0.05078307
0.05111696
0.05144048
0.05175427
0.05205889
0.05235549
0.052647
0.05294057
0.05325144
0.05356649
0.0740767
0.04145433
0.03841733
0.03887707
0.03996519
0.04118177
0.04236312
0.04344552
0.04440816
0.04525051
0.0459818
0.04661644
0.04717146
0.04766476
0.04811279
0.04852866
0.0489214
0.04929653
0.04965732
0.05000589
0.05034383
0.05067231
0.05099216
0.05130409
0.0516093
0.05191073
0.05221493
0.05253581
0.05290232
0.05331834
0.07410717
0.04175145
0.03877075
0.03921254
0.04022759
0.04134889
0.04243538
0.04343253
0.0443216
0.04510127
0.04577925
0.04636822
0.04688372
0.04734229
0.04775951
0.0481482
0.04851759
0.04887368
0.04922012
0.0495591
0.04989191
0.05021919
0.05054121
0.05085839
0.05117222
0.05148681
0.05181115
0.05216293
0.05257519
0.05304278
0.07414558
0.04202658
0.03909107
0.03953419
0.04050379
0.04155124
0.04255445
0.04346977
0.04428308
0.04499441
0.04561144
0.04614637
0.04661404
0.0470304
0.04741073
0.04776802
0.04811214
0.04844976
0.04878493
0.04911967
0.04945454
0.0497891
0.0501225
0.05045421
0.05078527
0.05111984
0.0514675
0.05184659
0.05228958
0.05278059
0.07417898
0.04224373
0.03933868
0.03979127
0.04073686
0.04173307
0.04267002
0.04351326
0.04425415
0.0448956
0.04544679
0.04592079
0.04633301
0.04669988
0.04703727
0.04735901
0.04767549
0.04799478
0.04832161
0.04865764
0.04900219
0.04935301
0.04970726
0.05006256
0.05041851
0.05077849
0.05115144
0.05155465
0.05201836
0.0525188
0.07420955
0.04241117
0.03951319
0.03997301
0.04090538
0.04186595
0.04275083
0.0435319
0.04420528
0.04477722
0.04525934
0.04566668
0.04601636
0.04632614
0.04661301
0.04689335
0.04718085
0.047484
0.04780718
0.04815104
0.04851306
0.04888859
0.0492723
0.04965956
0.05004822
0.05043958
0.05084081
0.05126732
0.05174679
0.05224995
0.07423899
0.04254138
0.03962649
0.04008611
0.0410081
0.04194115
0.04278301
0.04350906
0.04411889
0.04462174
0.04503196
0.04536716
0.04564625
0.0458908
0.04612263
0.04636006
0.04661813
0.04690693
0.0472311
0.04758998
0.04797845
0.04838856
0.0488115
0.04923943
0.04966734
0.05009472
0.05052674
0.05097665
0.05146948
0.05197181
0.07426733
0.04264424
0.03969309
0.04014385
0.04105387
0.04196224
0.0427656
0.04344069
0.04398912
0.04442243
0.04475749
0.04501392
0.04521664
0.04539078
0.04556135
0.04575082
0.04597724
0.04625288
0.04658277
0.04696451
0.04738943
0.04784499
0.04831777
0.04879595
0.04927126
0.04974062
0.05020712
0.05068199
0.05118803
0.05168873
0.07429412
0.04272661
0.03972606
0.04016029
0.04105511
0.04193882
0.04270537
0.04333135
0.04381919
0.04418185
0.04443786
0.04461228
0.04473261
0.04482891
0.04493109
0.04506664
0.04525804
0.04552098
0.0458611
0.04627399
0.04674638
0.04725934
0.04779333
0.0483315
0.04886195
0.04937902
0.04988383
0.05038586
0.05090612
0.05140565
0.07431879
0.04279295
0.03973609
0.04014831
0.04102484
0.04188305
0.04261345
0.04319144
0.04361936
0.04391062
0.04408707
0.04417561
0.04420818
0.04421953
0.04424573
0.04432196
0.04449631
0.0447626
0.04511588
0.04555032
0.04606198
0.04664172
0.04724826
0.04785597
0.04844853
0.04901808
0.04956429
0.05009538
0.05063106
0.0511305
0.07434073
0.04284597
0.03973166
0.04011907
0.0409755
0.04180797
0.04250329
0.04303516
0.04340501
0.04362748
0.04372485
0.0437268
0.04366852
0.04359039
0.04356895
0.04363899
0.0437964
0.04405624
0.04442378
0.04489113
0.04543876
0.04604088
0.04670371
0.04738634
0.0480459
0.04867071
0.04925974
0.0498207
0.05037256
0.05087308
0.07435929
0.04288714
0.03971937
0.040082
0.04091835
0.04172632
0.04238918
0.04287875
0.04319586
0.04335443
0.04337774
0.0432969
0.04315022
0.04302518
0.04297663
0.04300285
0.04313137
0.04338353
0.04376575
0.04426789
0.04486554
0.04552559
0.04621501
0.04694914
0.04767421
0.04835348
0.04898409
0.04957386
0.05014163
0.05064415
0.07437386
0.04291713
0.03970424
0.04004478
0.04086306
0.04164963
0.0422848
0.0427388
0.04301124
0.04311561
0.04307527
0.04292207
0.04270822
0.04256484
0.04246718
0.04245093
0.04255321
0.04279864
0.04319415
0.04372757
0.04437033
0.04508393
0.0458278
0.04657669
0.04735723
0.04808508
0.04875247
0.04936757
0.04994954
0.05045453
0.07438392
0.04293611
0.03968984
0.04001319
0.04081724
0.04158739
0.0422018
0.04262942
0.04286891
0.04293326
0.0428456
0.04263848
0.04240613
0.04222196
0.04208366
0.04203514
0.04211756
0.04235781
0.04276332
0.04332043
0.04399733
0.04475136
0.04553751
0.04631677
0.04712058
0.04788438
0.04857977
0.04921409
0.04980694
0.05031409
0.07438901
0.04294416
0.03967849
0.03999107
0.04078604
0.04154611
0.04214833
0.0425609
0.042782
0.0428243
0.04271069
0.04247414
0.04223291
0.04202535
0.04186459
0.04179833
0.04186974
0.04210697
0.04251781
0.0430878
0.04378333
0.04455944
0.04536876
0.04616921
0.04698134
0.04776458
0.04847549
0.04912053
0.04971966
0.05022906
0.07438894
0.04294111
0.03967113
0.03998011
0.04077182
0.04152885
0.04212828
0.04253832
0.04275721
0.04279763
0.04268251
0.04244481
0.04220275
0.04199455
0.04183335
0.04176681
0.04183801
0.0420751
0.04248585
0.04305586
0.04375154
0.04452798
0.04533781
0.04613893
0.04695163
0.04773562
0.04844724
0.0490929
0.04969248
0.0502022
0.07438372
0.0429268
0.03966742
0.03997983
0.04077395
0.04153487
0.04214078
0.04256071
0.04279345
0.04285207
0.04275978
0.04254914
0.04231428
0.04212817
0.04198856
0.04193921
0.04202111
0.04226107
0.04266653
0.0432239
0.04390148
0.0446567
0.04544455
0.04622592
0.04703167
0.04779778
0.04849534
0.0491315
0.04972574
0.05023429
0.07437355
0.04290108
0.03966573
0.03998756
0.04078884
0.0415596
0.04218017
0.04262095
0.04288174
0.04297621
0.04292785
0.04276848
0.04255035
0.04240354
0.04230367
0.04228613
0.0423878
0.04263315
0.0430291
0.04356356
0.04420808
0.04492426
0.0456715
0.04642416
0.04720907
0.04794116
0.04861235
0.04923057
0.04981475
0.0503213
0.07435878
0.04286374
0.03966317
0.03999855
0.04081013
0.04159504
0.04223659
0.04270686
0.04300694
0.04315102
0.04316252
0.04307255
0.04291931
0.04278955
0.04273793
0.0427626
0.04289081
0.04314365
0.04352749
0.04403223
0.04463353
0.04529828
0.0459933
0.04673321
0.04746488
0.04815048
0.04878671
0.049381
0.04995181
0.05045603
0.07434004
0.04281419
0.03965545
0.04000606
0.04082903
0.04163033
0.04229683
0.04280258
0.04314952
0.04335243
0.04343391
0.0434236
0.04335652
0.0432727
0.04324723
0.04331575
0.04347367
0.04373564
0.0441068
0.04457922
0.04513326
0.04574303
0.04641338
0.04710491
0.04777365
0.04840716
0.04900386
0.04957089
0.05012662
0.05062857
0.07431793
0.04275156
0.03963698
0.04000156
0.04083476
0.04165258
0.04234571
0.04289007
0.04328848
0.04355502
0.04371136
0.04378459
0.04380634
0.04381093
0.04383388
0.04390988
0.04408502
0.04435535
0.04471506
0.04515799
0.04567927
0.04626983
0.04688834
0.04750861
0.04811359
0.04869473
0.049251
0.04978994
0.05033049
0.0508315
0.07429312
0.04267421
0.03960065
0.03997483
0.04081496
0.04164775
0.04236756
0.04295171
0.04340331
0.04373574
0.043968
0.04412444
0.04423257
0.04432176
0.04442121
0.04455781
0.04475352
0.04502351
0.04537319
0.04579792
0.04628413
0.04681254
0.04736301
0.04791793
0.04846461
0.04899659
0.04951419
0.0500261
0.05055239
0.05105381
0.07426624
0.04257938
0.03953767
0.03991406
0.04075624
0.04160163
0.04234765
0.04297219
0.04347769
0.04387606
0.04418395
0.04442114
0.04461142
0.04477922
0.04494862
0.04514138
0.04537495
0.0456612
0.04600484
0.04640312
0.04684693
0.04732304
0.04781728
0.04831688
0.04881264
0.04930057
0.04978286
0.05026981
0.05078296
0.05128608
0.07423785
0.0424628
0.03943733
0.03980603
0.04064482
0.04150098
0.04227385
0.04294051
0.04350141
0.04396586
0.04434768
0.04466347
0.04493127
0.04517196
0.04540533
0.04564923
0.045918
0.04622141
0.04656386
0.04694428
0.04735692
0.04779298
0.04824262
0.04869691
0.04914974
0.04959955
0.05005054
0.05051497
0.05101672
0.05152204
0.07420849
0.04231826
0.03928712
0.03963681
0.04046792
0.0413356
0.04213899
0.04285233
0.04347244
0.04400488
0.04445984
0.04485064
0.04519265
0.04550158
0.0457937
0.04608462
0.0463868
0.0467086
0.04705448
0.04742477
0.04781618
0.04822303
0.0486387
0.04905726
0.0494753
0.04989297
0.05031638
0.05075988
0.05124988
0.05175663
0.07417848
0.04213747
0.03907389
0.03939414
0.04021716
0.04110223
0.04194479
0.04271357
0.04339984
0.04400424
0.04453305
0.04499644
0.04540718
0.04577931
0.04612686
0.04646231
0.04679655
0.04713792
0.04749123
0.04785792
0.04823651
0.04862351
0.0490146
0.04940588
0.04979549
0.05018553
0.05058375
0.05100633
0.05148219
0.05198695
0.07414711
0.04191055
0.03878799
0.0390735
0.03989573
0.04081178
0.04170834
0.04254551
0.04330726
0.04398871
0.04459238
0.04512606
0.04560093
0.04602985
0.04642587
0.04680107
0.04716565
0.04752732
0.04789104
0.04825903
0.04863116
0.0490056
0.04937974
0.04975127
0.0501196
0.05048744
0.05086307
0.05126366
0.05172026
0.05221627
0.0741127
0.0416298
0.03843169
0.03868905
0.03952945
0.04049855
0.04146838
0.04238821
0.04323409
0.04399596
0.04467358
0.04527361
0.04580687
0.04628616
0.04672452
0.04713404
0.04752502
0.04790539
0.04828058
0.04865352
0.04902499
0.04939419
0.04975942
0.05011907
0.05047276
0.05082301
0.05117743
0.05155244
0.05197962
0.05245294
0.0740876
0.04132658
0.03804454
0.03829476
0.03918255
0.04022933
0.04128889
0.04229998
0.04323223
0.04407206
0.04481813
0.04547729
0.04606108
0.04658306
0.04705699
0.04749551
0.04790942
0.04830716
0.04869469
0.04907556
0.04945119
0.04982138
0.05018487
0.05054013
0.05088633
0.05122463
0.05156013
0.05190541
0.05228796
0.05271059
0.0741781
0.04122267
0.03780577
0.03805423
0.03900157
0.04012846
0.04127077
0.04236019
0.04336238
0.04426237
0.04505895
0.04575984
0.04637776
0.04692741
0.04742357
0.04787979
0.04830761
0.04871618
0.04911204
0.04949928
0.04987978
0.05025367
0.05061981
0.05097647
0.05132199
0.05165567
0.05197887
0.05229744
0.05262537
0.05294865
0.09075839
0.07759843
0.07417816
0.07466971
0.07653531
0.07878941
0.08103831
0.08312809
0.08500676
0.08666758
0.08812494
0.08940336
0.09053187
0.09154013
0.09245529
0.09329966
0.09408995
0.09483773
0.0955506
0.09623317
0.09688776
0.09751469
0.09811248
0.09867803
0.09920696
0.0996937
0.1001313
0.1005104
0.1008139
0.1010002
0.09083808
0.07782271
0.07456409
0.07504479
0.0768233
0.07897754
0.08113632
0.08315014
0.08496582
0.08657445
0.0879884
0.08923059
0.09032876
0.09131162
0.09220568
0.09303296
0.09381012
0.09454876
0.09525636
0.09593724
0.09659317
0.0972238
0.09782701
0.09839926
0.09893612
0.09943262
0.0998834
0.1002819
0.1006149
0.1008379
0.09095256
0.07822174
0.07511538
0.07559392
0.07727562
0.07930036
0.08133015
0.08322765
0.08494216
0.08646384
0.0878033
0.08898176
0.09002558
0.09096243
0.09181828
0.09261504
0.09336955
0.09409356
0.0947944
0.09547573
0.09613824
0.09678025
0.09739829
0.09798775
0.09854361
0.09906107
0.09953582
0.09996296
0.1003298
0.1005836
0.09106199
0.0786087
0.07563607
0.07612863
0.07773883
0.07964828
0.08154909
0.08331982
0.08491654
0.08633161
0.08757595
0.08867049
0.08964122
0.09051565
0.09131986
0.09207627
0.09280229
0.09351001
0.09420647
0.09489426
0.09557232
0.09623677
0.09688191
0.09750119
0.09808817
0.09863727
0.09914396
0.09960322
0.1000007
0.1002761
0.09115234
0.07891924
0.07604939
0.0765609
0.07812353
0.07994176
0.08172881
0.08337774
0.08485313
0.08615196
0.08728776
0.08828312
0.08916537
0.0899633
0.09070435
0.09141232
0.09210582
0.09279756
0.09349419
0.09419671
0.09490147
0.09560142
0.09628757
0.09695036
0.09758093
0.09817193
0.09871754
0.09921141
0.09963677
0.09992821
0.09122199
0.07914667
0.07634376
0.07686777
0.07839546
0.08014113
0.08183024
0.08336653
0.08472248
0.08590065
0.08691873
0.08780274
0.08858314
0.08929172
0.0899588
0.09061073
0.09126839
0.09194569
0.09264866
0.09337609
0.09412071
0.09487105
0.09561356
0.09633459
0.09702187
0.09766528
0.09825699
0.09878877
0.09924148
0.09954638
0.09127362
0.07930258
0.07653274
0.07705684
0.07855259
0.08023606
0.08183829
0.08326965
0.08450876
0.08556356
0.0864566
0.08721861
0.08788473
0.08849146
0.08907389
0.08966349
0.09028416
0.0909506
0.091668
0.09243215
0.09323103
0.09404746
0.09486209
0.09565603
0.09641276
0.09711912
0.0977645
0.09833844
0.09881971
0.09913754
0.09131075
0.07940219
0.07663731
0.07714777
0.07860901
0.08023427
0.08175566
0.08308687
0.08421067
0.08513953
0.08590095
0.0865311
0.08707112
0.08756469
0.08805409
0.08857558
0.08915695
0.08981537
0.09055535
0.09136899
0.09223805
0.09313776
0.09404137
0.09492353
0.09576263
0.09654173
0.09724764
0.09786788
0.09837956
0.09871093
0.09133664
0.07945978
0.0766787
0.07716349
0.07858572
0.08015334
0.0815968
0.0828306
0.08383988
0.08464061
0.08526492
0.08575481
0.08615945
0.08653028
0.08691679
0.08736259
0.08790033
0.08855239
0.0893229
0.0901996
0.09115604
0.09215673
0.09316613
0.09415115
0.09508451
0.09594543
0.09671824
0.09738882
0.09793311
0.09827882
0.09135406
0.07948744
0.07667607
0.07712649
0.07850587
0.08001578
0.08138342
0.08252245
0.08341894
0.08409133
0.08457587
0.08492121
0.08518364
0.08542244
0.08569546
0.08605644
0.08653777
0.08718211
0.08798994
0.08894529
0.09001093
0.09113014
0.09226148
0.09336212
0.09439918
0.09534852
0.09619259
0.09691616
0.09749456
0.09785545
0.09136523
0.07949503
0.0766459
0.07705743
0.07839243
0.079846
0.08114133
0.08219028
0.08297879
0.08352694
0.08387473
0.0840761
0.08419361
0.08429307
0.08443679
0.08470522
0.0851458
0.08578906
0.08663801
0.08766959
0.08883917
0.09009139
0.09136263
0.09258868
0.09373467
0.094775
0.09569132
0.09646812
0.0970807
0.097457
0.09137187
0.07949041
0.07660195
0.07697444
0.07826682
0.07966819
0.08089775
0.08186512
0.08255556
0.08299
0.08321123
0.0832769
0.08325384
0.0832094
0.08324149
0.08342698
0.08382449
0.08446751
0.0853584
0.08646816
0.08774265
0.08911415
0.09051371
0.09187133
0.09312494
0.09425298
0.09523793
0.09606487
0.09670959
0.09710052
0.09137529
0.07947966
0.07655531
0.07689271
0.0781477
0.07950443
0.08067861
0.08157771
0.08218601
0.0825249
0.08263852
0.0825868
0.08243692
0.08227529
0.08220877
0.08232217
0.08268174
0.08332486
0.0842534
0.08543311
0.08680091
0.08827835
0.08978617
0.09125793
0.09260722
0.09381222
0.09485664
0.09572667
0.09639899
0.09680261
0.09137641
0.07946717
0.07651426
0.07682397
0.07804996
0.07937286
0.08050582
0.08135464
0.08190277
0.08217154
0.08220577
0.08206626
0.08181853
0.08157303
0.08143335
0.08149281
0.08182375
0.08246686
0.08342382
0.08465641
0.08609465
0.08765191
0.089241
0.09078666
0.09221619
0.09348041
0.09456951
0.09547168
0.09616455
0.09657772
0.09137579
0.07945575
0.07648422
0.07677601
0.07798368
0.07928603
0.08039484
0.08121503
0.08172956
0.08195965
0.08195042
0.08176313
0.08146334
0.08117091
0.08099118
0.08102112
0.08133627
0.08197917
0.08295146
0.08421282
0.08568944
0.08729022
0.0889236
0.09050971
0.09198264
0.09327955
0.09439335
0.09531329
0.09601763
0.09643627
0.09137368
0.0794466
0.07646758
0.07675235
0.07795349
0.07924977
0.08035297
0.08116807
0.08167806
0.08190421
0.08189166
0.08170167
0.08139972
0.08110568
0.08092482
0.08095403
0.08126878
0.08191159
0.08288411
0.08414603
0.08562358
0.08722563
0.0888606
0.09044853
0.09192342
0.09322221
0.09433773
0.09525912
0.09596453
0.09638381
0.09136998
0.0794393
0.0764636
0.07675197
0.07795813
0.07926257
0.08037848
0.08121176
0.08174604
0.08200276
0.08202685
0.08187911
0.08162483
0.08137446
0.08123139
0.08128875
0.08161869
0.08226183
0.0832198
0.08445446
0.08589584
0.08745726
0.08905142
0.09060274
0.09203838
0.09330838
0.0944027
0.09530924
0.09600537
0.09642049
0.09136428
0.07943187
0.0764685
0.07676941
0.07799048
0.07931562
0.08046056
0.08133299
0.08191747
0.08223566
0.08233183
0.08226596
0.082105
0.08193511
0.08186305
0.08197328
0.08233179
0.08297578
0.08390702
0.08509126
0.08646537
0.08795077
0.08946794
0.09095015
0.09230998
0.09352501
0.09457841
0.09545591
0.09613372
0.09654053
0.09135584
0.07942076
0.0764755
0.07679495
0.07803802
0.07939345
0.08058047
0.081509
0.08216472
0.08256902
0.08276487
0.08281003
0.08277117
0.08271522
0.08273996
0.08292181
0.08331909
0.08396494
0.08486151
0.08597966
0.08726501
0.0886495
0.09006362
0.09143729
0.09270666
0.09384952
0.09484764
0.09568541
0.09633803
0.09673341
0.09134357
0.07940082
0.076475
0.07681505
0.07808362
0.07947526
0.08071325
0.08170992
0.0824518
0.08295949
0.08327353
0.08344782
0.08354485
0.08363009
0.08376536
0.0840306
0.08447303
0.08512247
0.08598164
0.08702707
0.08821361
0.08948523
0.09077803
0.09202624
0.09319394
0.09425453
0.09518871
0.09598009
0.09660316
0.09698521
0.09132605
0.07936538
0.07645482
0.07681292
0.07810648
0.07953646
0.08083023
0.08190217
0.08273917
0.08336037
0.08380246
0.08411447
0.0843523
0.08457487
0.08483947
0.08519929
0.08568647
0.0863416
0.08716576
0.08814218
0.08923242
0.09037913
0.0915397
0.09266993
0.09373563
0.09471143
0.09557862
0.09632091
0.09691266
0.09728077
0.09130149
0.07930617
0.07640029
0.07676901
0.07808334
0.07955057
0.08090168
0.08205227
0.08298858
0.0837274
0.08430131
0.08475231
0.08512958
0.08548364
0.08586324
0.08631124
0.08685949
0.08752933
0.08832408
0.08923047
0.09022084
0.09125837
0.09230606
0.09332922
0.09429905
0.09519332
0.09599503
0.09668885
0.0972496
0.09760415
0.0912677
0.07921322
0.07629451
0.07666173
0.07798966
0.07949118
0.08089966
0.08213046
0.08316777
0.08402486
0.08472942
0.08531729
0.08582886
0.08630735
0.08679341
0.08732238
0.08792098
0.08860532
0.08937875
0.09023204
0.0911454
0.09209232
0.09304423
0.09397391
0.09485798
0.09567785
0.09641884
0.09706713
0.09759858
0.09794053
0.09122212
0.07907495
0.07611865
0.07646835
0.07780134
0.07933433
0.08080091
0.08211408
0.08325407
0.08422928
0.08506177
0.08578117
0.08642115
0.0870166
0.0876016
0.08820606
0.08885228
0.089554
0.09031505
0.09112964
0.09198389
0.09285854
0.09373204
0.09458335
0.09539393
0.09614877
0.09683565
0.09744263
0.09794712
0.09827734
0.09116198
0.07887868
0.07585321
0.07616706
0.07749759
0.07906202
0.08059073
0.08199133
0.08323781
0.08433213
0.08529012
0.08613541
0.08689587
0.08760082
0.08827855
0.0889538
0.08964648
0.09036909
0.09112634
0.09191529
0.09272656
0.09354625
0.09435829
0.09514656
0.09589656
0.09659618
0.09723581
0.09780563
0.09828504
0.09860415
0.09108478
0.07861239
0.07548125
0.07574165
0.07706669
0.07866833
0.08026867
0.08176613
0.08312579
0.0843418
0.08542351
0.08638913
0.0872619
0.08806709
0.08882946
0.08957097
0.09030925
0.09105612
0.09181711
0.09259157
0.09337356
0.09415336
0.09491911
0.09565853
0.09636025
0.09701475
0.09761432
0.09815093
0.09860627
0.09891362
0.09098954
0.07826999
0.07499652
0.07519171
0.07651696
0.07816981
0.07985716
0.08146425
0.082945
0.08428496
0.0854874
0.08656634
0.08754193
0.08843707
0.08927458
0.09007505
0.09085525
0.09162697
0.0923966
0.09316532
0.09392975
0.09468316
0.09541671
0.09612082
0.09678635
0.09740537
0.09797136
0.09847753
0.09890788
0.0992008
0.09088029
0.07786517
0.07442159
0.07455219
0.07589523
0.07762019
0.07941146
0.08113864
0.08274386
0.0842046
0.08551952
0.08670018
0.08776544
0.08873742
0.08963845
0.09048884
0.09130537
0.09210028
0.09288092
0.09364989
0.09440569
0.09514363
0.09585689
0.0965376
0.09717784
0.09777033
0.09830865
0.09878609
0.09918824
0.09946085
0.09077392
0.0774668
0.07384472
0.07392672
0.07531137
0.07712479
0.07902505
0.08086793
0.08258591
0.0841508
0.08555878
0.08682084
0.08795603
0.08898683
0.08993599
0.09082425
0.09166888
0.09248274
0.09327404
0.09404648
0.09479981
0.09553064
0.09623335
0.09690099
0.09752604
0.09810095
0.09861821
0.0990694
0.09943952
0.0996824
0.09071073
0.07725291
0.0734619
0.07351566
0.07494579
0.07683138
0.07881063
0.08073204
0.08252309
0.08415298
0.08561731
0.08692739
0.0881029
0.08916699
0.09014301
0.09105225
0.09191248
0.09273714
0.09353503
0.09431051
0.09506402
0.09579285
0.09649197
0.09715475
0.09777363
0.09834041
0.09884596
0.09927898
0.09962072
0.09982779
0.09516722
0.08954867
0.08819165
0.08935924
0.09165609
0.09429283
0.09690627
0.09934409
0.1015505
0.103516
0.1052541
0.1067902
0.1081548
0.1093792
0.1104924
0.1115189
0.112478
0.1133834
0.1142446
0.1150669
0.1158525
0.1166006
0.1173083
0.1179706
0.1185808
0.1191306
0.11961
0.1200059
0.1203001
0.1204644
0.09529154
0.08992114
0.08870547
0.08983612
0.09201917
0.09454107
0.09705767
0.09941655
0.1015586
0.1034712
0.1051656
0.1066653
0.1079997
0.1091993
0.1102928
0.1113044
0.1122532
0.113153
0.1140128
0.1148375
0.1156285
0.1163846
0.1171018
0.1177745
0.1183957
0.118957
0.1194486
0.119858
0.1201667
0.1203435
0.09545566
0.09041198
0.08937011
0.09049131
0.09255644
0.09493077
0.09730555
0.09953873
0.1015724
0.1033924
0.1050078
0.1064404
0.1077183
0.1088713
0.1099273
0.1109108
0.1118407
0.1127308
0.1135893
0.1144204
0.1152242
0.1159975
0.1167352
0.1174301
0.1180741
0.1186585
0.1191732
0.1196056
0.1199359
0.120128
0.09561241
0.0908629
0.08997928
0.09111507
0.09309462
0.09533675
0.0975668
0.09965921
0.1015628
0.1032656
0.104777
0.1061187
0.1073184
0.1084058
0.1094094
0.1103538
0.1112585
0.112137
0.1129971
0.1138411
0.1146671
0.1154696
0.1162406
0.1169709
0.1176506
0.1182694
0.1188166
0.1192785
0.1196333
0.1198405
0.09573921
0.09121755
0.09045824
0.0916155
0.09353697
0.0956724
0.09777202
0.09972627
0.1014932
0.1030658
0.1044566
0.1056891
0.1067926
0.1077983
0.1087364
0.1096328
0.1105079
0.1113754
0.1122419
0.1131079
0.1139683
0.1148138
0.115633
0.1164132
0.1171419
0.1178067
0.1183952
0.1188922
0.1192736
0.1194956
0.09583212
0.09147067
0.09079707
0.09196965
0.09384731
0.09589572
0.09788064
0.09970482
0.1013352
0.1027711
0.1040297
0.1051385
0.1061304
0.1070401
0.1079009
0.1087415
0.109584
0.1104426
0.1113228
0.1122221
0.1131311
0.1140357
0.1149196
0.1157656
0.1165574
0.11728
0.1179186
0.1184562
0.1188668
0.119104
0.095895
0.09163575
0.09101156
0.09218665
0.09402423
0.09599668
0.09787813
0.09957949
0.1010749
0.1023698
0.1034871
0.1044597
0.105326
0.1061263
0.1068988
0.1076764
0.1084843
0.1093376
0.1102404
0.1111861
0.1121601
0.1131418
0.1141082
0.1150366
0.1159062
0.1166983
0.1173959
0.11798
0.1184228
0.1186764
0.09593384
0.09173102
0.09112553
0.09228856
0.09408375
0.09598474
0.09776903
0.09935215
0.1007133
0.1018635
0.1028315
0.1036566
0.1043845
0.1050626
0.1057362
0.1064448
0.1072172
0.1080698
0.1090051
0.1100119
0.1110683
0.1121454
0.1132125
0.1142397
0.115201
0.116074
0.1168389
0.117475
0.1179533
0.1182246
0.09595461
0.09177421
0.09116357
0.09230142
0.09404973
0.09588024
0.09757063
0.09903831
0.1002657
0.1012683
0.1020803
0.1027484
0.1033266
0.1038712
0.104437
0.1050703
0.1058055
0.1066613
0.1076389
0.1087215
0.1098778
0.1110689
0.112254
0.1133954
0.1144609
0.1154243
0.1162635
0.1169561
0.1174725
0.117763
0.09596258
0.09178096
0.09114843
0.09225129
0.09394886
0.09570931
0.09730846
0.09866373
0.09975918
0.1006135
0.1012665
0.1017718
0.1021926
0.1025956
0.1030448
0.1035966
0.1042919
0.1051521
0.1061808
0.1073534
0.1086254
0.1099469
0.1112648
0.1125324
0.1137114
0.1147719
0.1156896
0.1164416
0.1169976
0.1173078
0.09596212
0.09176451
0.09110017
0.09216258
0.09380807
0.09550052
0.09701289
0.09826134
0.09923038
0.09994107
0.1004377
0.100781
0.1010429
0.1012998
0.1016252
0.1020889
0.102744
0.1036149
0.104699
0.1059655
0.1073623
0.108828
0.1102884
0.1116887
0.1129849
0.1141442
0.115141
0.1159522
0.1165476
0.1168773
0.09595679
0.09173575
0.0910359
0.09205706
0.0936527
0.09528246
0.09671606
0.09786782
0.09872191
0.0993009
0.0996527
0.09984422
0.09995467
0.1000672
0.1002759
0.1006605
0.1012793
0.1021612
0.1033011
0.104661
0.1061778
0.1077755
0.1093789
0.1109097
0.1123191
0.1135724
0.1146438
0.1155103
0.1161423
0.1164902
0.09594937
0.09170334
0.09096961
0.09195319
0.0935051
0.09508136
0.09644868
0.09751948
0.09827724
0.09874537
0.09897448
0.09903579
0.09901447
0.09900297
0.09911115
0.09942645
0.1000139
0.1009057
0.1020955
0.1035385
0.1051611
0.1068757
0.108596
0.1102453
0.111754
0.1130888
0.1142242
0.1151379
0.1158011
0.1161645
0.0959419
0.09167369
0.09091192
0.09186531
0.09338318
0.09491883
0.09623677
0.09724784
0.09793486
0.09832161
0.09846031
0.09842466
0.09830154
0.0982016
0.09823533
0.09849861
0.09906231
0.09996162
0.101189
0.1026947
0.1043971
0.1061998
0.1080085
0.1097437
0.1113271
0.1127228
0.1139059
0.1148546
0.1155408
0.1159158
0.09593566
0.09165095
0.09086978
0.09180303
0.09329913
0.09480992
0.09609872
0.09707553
0.0977228
0.09806443
0.09815342
0.09806473
0.09788685
0.0977378
0.09773076
0.09796551
0.09851611
0.09941936
0.1006672
0.1022072
0.1039533
0.1058042
0.1076613
0.1094418
0.1110678
0.1124974
0.1137068
0.114675
0.1153741
0.1157555
0.09593122
0.09163692
0.09084628
0.09177066
0.09325849
0.09476157
0.09604319
0.09701341
0.09765471
0.09799108
0.09807552
0.09798304
0.09780209
0.09765069
0.097642
0.09787575
0.09842598
0.09932947
0.1005781
0.1021195
0.1038675
0.1057207
0.1075805
0.1093638
0.1109927
0.112425
0.1136368
0.114607
0.1153075
0.1156897
0.09592838
0.09163103
0.09084049
0.09176695
0.09325973
0.09477194
0.09606806
0.09705905
0.09772789
0.09809857
0.09822344
0.09817625
0.09804385
0.09793684
0.09796569
0.09822617
0.09878904
0.0996894
0.1009196
0.1024299
0.1041384
0.1059484
0.1077654
0.1095094
0.1111017
0.1125056
0.113696
0.1146507
0.1153413
0.1157187
0.09592623
0.09163034
0.09084749
0.0917851
0.09329416
0.09483036
0.09616039
0.09719682
0.09792344
0.09836401
0.09856945
0.09861109
0.09857412
0.0985509
0.09865124
0.09896245
0.09954935
0.100444
0.1016398
0.1030917
0.1047256
0.1064536
0.1081887
0.1098535
0.1113774
0.1127263
0.1138742
0.1147982
0.1154688
0.1158363
0.09592313
0.09162967
0.09085857
0.09181314
0.09334666
0.09491832
0.09629778
0.09739965
0.09820857
0.09874764
0.09906525
0.09922857
0.09931693
0.0994134
0.09961193
0.09999208
0.1006119
0.1014998
0.1026504
0.1040252
0.1055602
0.1071787
0.1088046
0.1103585
0.1117902
0.1130642
0.1141538
0.1150351
0.1156778
0.1160315
0.09591675
0.09162162
0.09086153
0.09183452
0.09339656
0.09501094
0.09645058
0.0976321
0.09854072
0.09919825
0.09964961
0.09995612
0.1001899
0.100427
0.1007413
0.1012015
0.1018607
0.1027427
0.1038441
0.1051332
0.1065569
0.1080524
0.1095443
0.1109763
0.112303
0.1134903
0.1145115
0.1153424
0.115952
0.1162894
0.09590408
0.09159675
0.09084105
0.0918289
0.09341909
0.09507905
0.09658477
0.09785443
0.0988731
0.09966053
0.1002572
0.1007175
0.1011049
0.1014859
0.1019242
0.1024755
0.1031802
0.1040588
0.1051135
0.1063181
0.1076274
0.1089893
0.1103492
0.1116583
0.1128769
0.1139734
0.1149223
0.1156994
0.1162733
0.1165931
0.09588143
0.09154369
0.09077904
0.09177297
0.09338674
0.09509145
0.09666533
0.09802705
0.09916053
0.1000824
0.100828
0.1014444
0.1019855
0.1025079
0.1030652
0.1037032
0.104455
0.1053382
0.1063524
0.1074788
0.1086844
0.109928
0.1111667
0.1123606
0.1134756
0.1144838
0.1153614
0.1160849
0.1166232
0.1169255
0.09584451
0.09144924
0.09065515
0.09164142
0.09327099
0.09501734
0.09665937
0.09811471
0.09936455
0.1004213
0.1013144
0.1020835
0.1027736
0.1034317
0.1041022
0.104823
0.1056217
0.1065129
0.107497
0.1085609
0.1096798
0.1108227
0.111956
0.1130475
0.1140689
0.1149959
0.1158071
0.11648
0.1169844
0.1172698
0.0957885
0.09129866
0.09044739
0.09140826
0.09304429
0.094829
0.09653958
0.09809024
0.09945759
0.1006484
0.1016856
0.1026015
0.1034333
0.1042197
0.1049972
0.1057972
0.106643
0.1075478
0.1085132
0.1095303
0.1105812
0.1116425
0.1126885
0.1136935
0.1146342
0.1154899
0.1162416
0.1168687
0.117342
0.1176119
0.09570841
0.0910766
0.0901338
0.09104925
0.09268332
0.09450572
0.09628822
0.0979386
0.09942644
0.1007514
0.1019295
0.1029859
0.1039511
0.104857
0.1057345
0.1066102
0.107504
0.1084281
0.1093855
0.1103708
0.1113714
0.1123701
0.1133469
0.1142817
0.1151557
0.1159513
0.1166518
0.1172385
0.1176838
0.1179395
0.09560022
0.09076967
0.08969628
0.09054712
0.0921752
0.09404018
0.09590324
0.09766188
0.09927599
0.1007367
0.1020528
0.1032432
0.1043328
0.1053491
0.1063185
0.1072646
0.1082056
0.1091531
0.1101115
0.1110779
0.1120441
0.1129972
0.1139221
0.1148029
0.1156241
0.1163709
0.1170287
0.1175804
0.1180005
0.118243
0.09546361
0.09037287
0.08912965
0.08990231
0.09152913
0.09344959
0.09540746
0.09728613
0.0990333
0.1006307
0.1020803
0.1033962
0.1045996
0.1057148
0.1067663
0.1077758
0.108761
0.1097334
0.1106987
0.1116564
0.1126011
0.1135233
0.1144115
0.1152528
0.1160342
0.1167429
0.1173659
0.1178876
0.1182845
0.1185141
0.09530926
0.08990451
0.08846076
0.08915413
0.0907968
0.09279253
0.09486066
0.09686842
0.09875025
0.1004789
0.1020513
0.1034786
0.1047802
0.1059794
0.1070997
0.1081627
0.1091859
0.1101817
0.1111568
0.1121124
0.1130453
0.1139484
0.1148125
0.1156268
0.1163801
0.1170608
0.1176565
0.1181528
0.1185281
0.1187441
0.09517581
0.08943584
0.087785
0.08841638
0.09010085
0.09218752
0.09436867
0.09649836
0.09849969
0.100339
0.1020105
0.1035248
0.1049011
0.1061628
0.107334
0.1084365
0.1094885
0.1105027
0.111487
0.1124439
0.1133714
0.1142641
0.1151142
0.1159123
0.1166479
0.11731
0.1178864
0.1183626
0.1187183
0.1189201
0.09514747
0.08912254
0.08731018
0.08791133
0.08964725
0.09180816
0.09406907
0.0962791
0.09835515
0.1002608
0.1019898
0.1035532
0.1049709
0.1062668
0.1074655
0.1085894
0.1096568
0.1106813
0.1116711
0.1126294
0.1135551
0.1144434
0.1152874
0.116078
0.1168053
0.1174582
0.1180242
0.1184885
0.1188308
0.1190207
0.09752871
0.09547789
0.09572063
0.09766901
0.1004332
0.1033808
0.1062407
0.1088967
0.1113033
0.1134536
0.1153623
0.1170559
0.1185658
0.1199243
0.1211611
0.1223017
0.1233663
0.1243699
0.1253225
0.1262295
0.127093
0.1279115
0.1286812
0.1293959
0.1300478