/*--------------------------------*- C++ -*----------------------------------*\
| =========                 |                                                 |
| \\      /  F ield         | OpenFOAM: The Open Source CFD Toolbox           |
|  \\    /   O peration     | Version:  2506                                  |
|   \\  /    A nd           | Website:  www.openfoam.com                      |
|    \\/     M anipulation  |                                                 |
\*---------------------------------------------------------------------------*/
FoamFile
{
    version     2.0;
    format      ascii;
    arch        "LSB;label=32;scalar=64";
    class       surfaceScalarField;
    location    "500/air";
    object      phi;
}
// * * * * * * * * * * * * * * * * * * * * * * * * * * * * * * * * * * * * * //

dimensions      [1 0 -1 0 0 0 0];

oriented        oriented;

internalField   nonuniform List<scalar> 
98844
(
0.0009851687
-9.805227e-05
-0.0001675769
0.001182007
-0.0005584294
-5.90167e-06
0.001403944
-0.0009466366
-0.0001129202
0.001669866
-0.00132024
-0.0002771085
0.00200361
-0.001644717
-0.0004769951
0.002400901
-0.001923777
-0.0006806419
0.002843497
-0.002157794
-0.0008655872
0.003312198
-0.002346971
-0.00102372
0.003789981
-0.002492198
-0.001152988
0.004262657
-0.002597633
-0.001254676
0.004718178
-0.002669669
-0.001331857
0.005147017
-0.002715814
-0.001389079
0.00554362
-0.002743609
-0.001432554
0.005907317
-0.002759779
-0.001469138
0.006241902
-0.002771133
-0.001504571
0.006552814
-0.002785712
-0.001541869
0.006844595
-0.002811978
-0.001581166
0.007119675
-0.00285711
-0.00162102
0.007378831
-0.002924957
-0.001660011
0.007622602
-0.003015171
-0.001697722
0.007852506
-0.0031234
-0.001734937
0.008071757
-0.003242181
-0.001773375
0.008285504
-0.003361382
-0.001815245
0.008501163
-0.003468128
-0.001863089
0.008729512
-0.003545962
-0.001920071
0.008987754
-0.003572879
-0.00199063
0.009307215
-0.003518039
-0.002081839
0.009751087
-0.003338471
-0.002206788
0.01044626
-0.002982218
-0.002389023
-0.002435813
-0.002617936
0.001079007
-0.0001067427
-0.0002452821
0.001222191
-0.000609973
-9.163209e-05
0.001422657
-0.0009859868
-0.0001611001
0.001677521
-0.001298902
-0.0002761807
0.002005186
-0.00154846
-0.0004238961
0.002400554
-0.001741356
-0.0005777582
0.002846054
-0.001884141
-0.0007191187
0.003321135
-0.001981578
-0.0008404379
0.003807135
-0.00203856
-0.0009395989
0.004287769
-0.002060966
-0.001017262
0.004749312
-0.002055542
-0.001075633
0.005181257
-0.002029446
-0.001118275
0.005577341
-0.001989672
-0.001149984
0.005936646
-0.001942792
-0.001176257
0.006262734
-0.001895556
-0.001201633
0.006561353
-0.001855657
-0.001228645
0.006837943
-0.001831011
-0.00125753
0.007096398
-0.001828229
-0.001287314
0.007339391
-0.001850934
-0.001316997
0.007569431
-0.00189883
-0.001346364
0.007789994
-0.001967802
-0.001376147
0.008006249
-0.002050571
-0.001407854
0.008225608
-0.002137225
-0.001443507
0.008458577
-0.002215429
-0.001485661
0.008720777
-0.002270231
-0.001537927
0.009037538
-0.00228355
-0.001606087
0.009453081
-0.002233445
-0.001700137
0.01004882
-0.00209529
-0.001838924
0.01097872
-0.001851003
-0.002061111
-0.001530562
-0.002388359
0.001178919
-9.001676e-05
-0.0003227789
0.001346447
-0.0005543763
-0.0002231147
0.001551196
-0.0009152279
-0.0002754904
0.001811146
-0.001200089
-0.0003587407
0.002141777
-0.001412739
-0.0004663242
0.002538226
-0.00156024
-0.0005775347
0.002983963
-0.001650545
-0.0006793
0.003459325
-0.001691004
-0.0007659007
0.003945186
-0.001688903
-0.000835482
0.00442431
-0.001651835
-0.0008882181
0.00488203
-0.001587611
-0.0009256134
0.005307045
-0.001504104
-0.0009503213
0.005692646
-0.001409054
-0.0009661847
0.006037372
-0.001309892
-0.0009775922
0.006344509
-0.00121422
-0.0009884428
0.00662005
-0.00113016
-0.001001009
0.006870464
-0.001065507
-0.001015892
0.007101605
-0.001026706
-0.001032642
0.007318658
-0.001017196
-0.001050772
0.007526781
-0.001036597
-0.001070339
0.007731914
-0.001080843
-0.001092079
0.007941482
-0.001142789
-0.00111734
0.008165113
-0.001212871
-0.001147978
0.008415874
-0.001279608
-0.001186577
0.008712671
-0.001329827
-0.001237197
0.009085409
-0.001349553
-0.001306733
0.009583643
-0.001324313
-0.001407366
0.01029202
-0.001242045
-0.001561624
0.01135614
-0.001101576
-0.00181355
-0.0009355995
-0.002177859
0.001271027
-7.251754e-05
-0.0003730606
0.001482105
-0.0004641424
-0.0003013001
0.001719086
-0.0007905172
-0.0003616741
0.002006286
-0.001049534
-0.0004377335
0.00235705
-0.001238628
-0.0005248479
0.002766024
-0.001360441
-0.0006087426
0.003218211
-0.001420732
-0.0006819688
0.00369542
-0.001426532
-0.0007416467
0.00417921
-0.001385721
-0.0007869372
0.004652395
-0.001306794
-0.0008181906
0.005100103
-0.001198567
-0.0008367181
0.00551088
-0.001070056
-0.0008447899
0.005877783
-0.0009303477
-0.0008455765
0.006199152
-0.0007884075
-0.0008428238
0.006478129
-0.0006532334
-0.0008399343
0.006721348
-0.0005340826
-0.0008392709
0.006936503
-0.0004386838
-0.0008419544
0.007131813
-0.0003738054
-0.0008481914
0.007315313
-0.0003427047
-0.0008579743
0.00749503
-0.0003447952
-0.0008715051
0.007679447
-0.0003758933
-0.0008893557
0.007878046
-0.0004288522
-0.000912527
0.008102145
-0.0004944152
-0.0009425478
0.008366486
-0.0005620974
-0.0009818463
0.008690902
-0.0006195679
-0.001034673
0.009106588
-0.0006568777
-0.001108361
0.009662744
-0.0006645266
-0.001215943
0.01043942
-0.0006376071
-0.001381109
0.01156842
-0.0005816027
-0.001648979
-0.0005219801
-0.002023903
0.001354408
-6.107252e-05
-0.0004097778
0.001610732
-0.0003713247
-0.0003491312
0.001891776
-0.0006482893
-0.0004232536
0.002219797
-0.0008748766
-0.0005026571
0.002604278
-0.001040851
-0.0005822332
0.003037965
-0.001143176
-0.0006509232
0.003506158
-0.00118366
-0.0007052351
0.003991633
-0.001167139
-0.0007448354
0.004476744
-0.001100569
-0.0007702308
0.004944723
-0.0009923041
-0.0007824372
0.005380906
-0.0008516616
-0.000783056
0.005773939
-0.0006886784
-0.0007743809
0.00611698
-0.0005138834
-0.000759475
0.006408511
-0.0003380728
-0.0007418373
0.006651814
-0.0001716395
-0.0007248715
0.006854708
-2.57853e-05
-0.0007111671
0.007026871
9.169399e-05
-0.0007025202
0.007179139
0.0001736237
-0.0006996799
0.00732251
0.0002171111
-0.0007031724
0.007468049
0.0002229606
-0.0007132827
0.007626778
0.0001956482
-0.0007302613
0.007809942
0.0001425696
-0.0007545784
0.008029701
7.303932e-05
-0.0007872081
0.008302035
-4.371412e-06
-0.000830057
0.008645364
-7.533646e-05
-0.0008875587
0.00909059
-0.000135447
-0.0009666566
0.009683478
-0.0001769107
-0.001080505
0.01049689
-0.0001984431
-0.001252578
0.01164966
-0.0002070896
-0.001527282
-0.0002192572
-0.001901208
0.001438211
-5.406286e-05
-0.0004387477
0.001732388
-0.0002864719
-0.0003790186
0.00205723
-0.0005086675
-0.000464447
0.002430014
-0.0006973914
-0.0005502483
0.002855296
-0.0008370889
-0.0006290197
0.003322454
-0.0009199856
-0.0006903225
0.003815472
-0.0009439472
-0.000732703
0.004316951
-0.0009110018
-0.0007575883
0.004809373
-0.0008262677
-0.0007666927
0.005276113
-0.0006972011
-0.0007618143
0.005702559
-0.0005330164
-0.000745061
0.006077423
-0.0003443833
-0.0007191313
0.006394004
-0.0001430849
-0.0006873527
0.006651494
5.799209e-05
-0.0006535296
0.006854258
0.0002470266
-0.0006214063
0.007010189
0.0004124332
-0.0005941286
0.007132225
0.0005441475
-0.0005744717
0.007234443
0.0006354024
-0.0005639805
0.007331436
0.0006834518
-0.0005633218
0.007437389
0.0006895724
-0.0005725546
0.007565704
0.000658744
-0.000591404
0.007729182
0.0005987535
-0.0006196565
0.007940857
0.0005190006
-0.0006576331
0.008214105
0.0004292217
-0.0007068393
0.008570119
0.0003391687
-0.0007705194
0.009034859
0.0002557573
-0.000855945
0.009649879
0.0001836647
-0.000975598
0.01048067
0.0001228037
-0.001152037
0.01163521
6.663521e-05
-0.00142827
6.057415e-06
-0.001795175
0.001527007
-4.865046e-05
-0.0004627397
0.00185002
-0.0002129448
-0.0003965288
0.002213147
-0.0003822349
-0.0004895432
0.002628824
-0.0005316222
-0.0005814264
0.00309665
-0.0006428087
-0.0006620841
0.003601902
-0.0007050247
-0.0007201888
0.004126056
-0.0007131389
-0.000754936
0.004650318
-0.0006665316
-0.0007687064
0.00515639
-0.0005682944
-0.0007640183
0.005627067
-0.0004245534
-0.0007432974
0.006047304
-0.0002439989
-0.000709228
0.006405626
-3.763761e-05
-0.0006650415
0.006695589
0.0001817273
-0.0006147514
0.006915568
0.0004007314
-0.0005626956
0.007071535
0.0006050741
-0.0005139932
0.007174929
0.0007820667
-0.0004730082
0.007241187
0.0009210978
-0.0004431923
0.007288007
0.001015212
-0.0004266158
0.007333751
0.001061769
-0.0004240506
0.007395927
0.001062554
-0.0004351494
0.007490331
0.001023206
-0.0004588601
0.007631008
0.0009521077
-0.0004940277
0.007830973
0.0008590661
-0.0005400291
0.008103739
0.000753976
-0.0005975204
0.008466511
0.000645743
-0.0006693477
0.008943236
0.0005410757
-0.0007620457
0.00957067
0.0004435869
-0.0008873599
0.01040748
0.0003527478
-0.00106676
0.01155262
0.0002631859
-0.001341691
0.0001711913
-0.001698309
0.001619705
-4.341273e-05
-0.0004831775
0.001964581
-0.0001516736
-0.0004061367
0.002359722
-0.0002740328
-0.0005033278
0.002813972
-0.0003861462
-0.0005997082
0.003322801
-0.0004689709
-0.0006826457
0.003867427
-0.0005103778
-0.00073925
0.004426189
-0.0005033547
-0.0007685227
0.004978074
-0.0004452688
-0.0007731242
0.005503094
-0.0003373694
-0.0007559193
0.005982722
-0.0001844456
-0.0007197116
0.006400942
5.417169e-06
-0.0006676124
0.006744812
0.0002221013
-0.0006035855
0.007007084
0.0004519722
-0.0005324944
0.007187829
0.0006804626
-0.0004604556
0.007294391
0.0008923788
-0.0003938487
0.007340867
0.001073984
-0.0003383761
0.007346413
0.001214083
-0.0002985182
0.007333074
0.001305584
-0.0002770228
0.007323456
0.001346101
-0.0002747059
0.007338605
0.001338023
-0.0002906129
0.007396684
0.001287716
-0.0003225861
0.007512743
0.001204207
-0.0003681566
0.007699484
0.00109777
-0.0004254447
0.007969091
0.0009784229
-0.0004940562
0.008336013
0.000854865
-0.000576046
0.008820853
0.0007334127
-0.0006771809
0.009455629
0.0006172532
-0.0008084468
0.01029281
0.0005058328
-0.0009902699
0.01142367
0.0003949556
-0.001262636
0.0002849948
-0.001607698
0.001713082
-3.796419e-05
-0.0005008335
0.002075034
-0.000102608
-0.0004110075
0.002496656
-0.0001859065
-0.0005097343
0.002984547
-0.0002652469
-0.0006087718
0.003531133
-0.0003222281
-0.0006933097
0.004114063
-0.0003446015
-0.0007486855
0.004708473
-0.000324522
-0.0007732212
0.005290664
-0.0002580638
-0.0007693737
0.005838313
-0.0001450391
-0.0007399562
0.006331375
1.029293e-05
-0.0006877778
0.006750309
0.0002030206
-0.0006165153
0.007081697
0.0004213747
-0.00053064
0.007317606
0.0006526812
-0.0004365989
0.007458517
0.0008817687
-0.0003421984
0.007513576
0.001092901
-0.0002555641
0.007500084
0.001271711
-0.000184221
0.007441412
0.001407054
-0.0001342867
0.007364633
0.001491355
-0.0001089827
0.007297007
0.001522906
-0.0001091741
0.007263316
0.001504773
-0.0001330542
0.007284109
0.001443839
-0.0001769134
0.007375106
0.001349898
-0.000236688
0.007548378
0.00123323
-0.0003087343
0.00781423
0.001103934
-0.0003913657
0.008184264
0.0009705344
-0.0004857069
0.008675424
0.0008390254
-0.0005967777
0.009315143
0.000712338
-0.0007348094
0.01015022
0.0005900335
-0.0009192788
0.01126517
0.0004689018
-0.001188901
0.0003518812
-0.001522502
0.001803339
-3.223284e-05
-0.0005161128
0.002179002
-6.506212e-05
-0.0004131995
0.002622505
-0.0001177635
-0.0005116319
0.003139196
-0.0001702177
-0.0006117038
0.003719464
-0.0002056461
-0.0006968316
0.00433807
-0.0002125997
-0.0007505885
0.004967199
-0.0001832573
-0.0007703739
0.005580411
-0.0001131343
-0.0007581206
0.006153026
-1.379714e-06
-0.0007162528
0.006660728
0.0001501881
-0.0006475768
0.007083589
0.000335822
-0.0005556423
0.00740509
0.0005459441
-0.0004460508
0.007616354
0.0007681288
-0.0003266938
0.007717975
0.0009875066
-0.0002073433
0.007720933
0.001188594
-9.863722e-05
0.007646973
0.001356728
-1.10453e-05
0.007522734
0.001480468
5.083417e-05
0.007381409
0.001554077
7.860831e-05
0.007254925
0.001575858
7.353701e-05
0.007171927
0.001549151
3.862087e-05
0.007156128
0.001481372
-2.173423e-05
0.007222897
0.001381935
-9.880757e-05
0.00738365
0.001261448
-0.0001889754
0.00764641
0.00112959
-0.0002884211
0.008019729
0.0009944116
-0.0003972015
0.008516852
0.0008615455
-0.0005196489
0.009160867
0.0007336794
-0.0006653619
0.009993431
0.000610499
-0.0008530354
0.0110931
0.0004895507
-0.001120327
0.0003750836
-0.001443265
0.001886507
-2.620752e-05
-0.000529138
0.002273297
-3.78638e-05
-0.0004139798
0.002734748
-6.818691e-05
-0.0005110135
0.003275599
-0.0001001399
-0.0006109141
0.003884986
-0.0001193193
-0.0006956963
0.004535468
-0.0001157587
-0.0007473046
0.005196717
-8.236259e-05
-0.0007621251
0.005839741
-1.478458e-05
-0.000741354
0.006436506
8.876453e-05
-0.0006868903
0.006960933
0.0002269609
-0.0006011809
0.007389492
0.0003951219
-0.0004878403
0.007703491
0.0005852067
-0.0003532439
0.007892402
0.0007860067
-0.0002067732
0.007957262
0.0009837835
-6.112267e-05
0.007910357
0.001163061
7.245038e-05
0.007776966
0.001311646
0.0001784829
0.007589368
0.001419378
0.0002486947
0.007385222
0.001480247
0.0002779804
0.007201933
0.001493139
0.0002660097
0.007072191
0.001461552
0.0002173418
0.007021063
0.001392657
0.0001398413
0.007065211
0.001295759
4.202471e-05
0.007215029
0.001180692
-6.906625e-05
0.007475906
0.001055993
-0.0001872845
0.007853229
0.0009291121
-0.00031203
0.008356606
0.0008050373
-0.0004468755
0.009005112
0.0006861295
-0.0006009631
0.009835856
0.0005721704
-0.0007924218
0.01092221
0.0004612968
-0.001058104
0.0003580705
-0.001371646
0.001958731
-1.990325e-05
-0.0005398469
0.002354406
-1.944749e-05
-0.0004140821
0.002830207
-3.474808e-05
-0.0005092275
0.003390643
-5.233432e-05
-0.0006082268
0.004024143
-6.077899e-05
-0.0006920247
0.004701686
-5.213244e-05
-0.0007411524
0.005390937
-2.059412e-05
-0.0007510021
0.006060414
3.776203e-05
-0.0007220062
0.006679957
0.0001247072
-0.000655468
0.007220607
0.0002394811
-0.0005531529
0.00765589
0.0003786525
-0.0004187967
0.007964552
0.0005358481
-0.0002592872
0.008134679
0.0007018128
-8.591939e-05
0.008166126
0.0008642835
8.806621e-05
0.008074256
0.001011406
0.0002435351
0.007886354
0.001132323
0.0003672327
0.007640012
0.001218634
0.0004470913
0.007378059
0.001265334
0.0004768688
0.007142919
0.001271595
0.0004566843
0.006971049
0.001240624
0.0003927955
0.006889298
0.001178788
0.0002956173
0.006914453
0.001094144
0.0001764545
0.007055198
0.0009948999
4.504155e-05
0.007315426
0.0008885316
-9.277208e-05
0.007697334
0.0007810129
-0.0002338162
0.008207191
0.0006763992
-0.0003812264
0.008860488
0.0005766413
-0.000543816
0.00969046
0.0004815713
-0.0007393803
0.01076614
0.0003898302
-0.001004218
0.0003055624
-0.001309987
0.002016589
-1.333559e-05
-0.00054809
0.002418973
-7.921765e-06
-0.0004139008
0.002905611
-1.419986e-05
-0.0005071753
0.003480956
-2.265409e-05
-0.0006050114
0.004133091
-2.531837e-05
-0.0006875805
0.00483191
-1.665394e-05
-0.0007342821
0.005543601
7.374614e-06
-0.0007396441
0.006234911
4.994692e-05
-0.0007034783
0.00687367
0.0001122179
-0.0006262537
0.007428502
0.0001939776
-0.0005093132
0.007870382
0.0002929881
-0.0003562001
0.008175697
0.0004049046
-0.0001743572
0.008330776
0.0005232073
2.353954e-05
0.008335146
0.000638358
0.0002215657
0.008205376
0.0007426321
0.0003985531
0.007971708
0.0008280322
0.0005379648
0.007675817
0.0008883786
0.0006261499
0.007365202
0.0009200706
0.00065588
0.007086694
0.0009225635
0.0006275391
0.006880023
0.0008982946
0.0005489989
0.006773593
0.000852021
0.000433194
0.006783997
0.0007896757
0.0002940596
0.006918315
0.0007172527
0.000143323
0.00717894
0.000640118
-1.221759e-05
0.00756546
0.0005622123
-0.0001677265
0.008081452
0.0004870318
-0.0003266321
0.008739408
0.0004156757
-0.0004969981
0.00956953
0.0003479431
-0.0006965013
0.01063751
0.0002829721
-0.0009611259
0.0002241088
-0.00126102
0.002057267
-6.614584e-06
-0.0005535255
0.002464111
-1.199889e-06
-0.0004135578
0.002958
-2.650731e-06
-0.0005054274
0.003543373
-5.765323e-06
-0.0006022484
0.004208175
-6.370649e-06
-0.0006837364
0.004921681
-1.635573e-06
-0.0007285097
0.005648976
1.059265e-05
-0.0007304985
0.006355881
3.194878e-05
-0.0006888922
0.007008584
6.31738e-05
-0.000603644
0.007573989
0.0001042707
-0.000475684
0.008021147
0.0001542192
-0.0003083744
0.008324875
0.0002108731
-0.0001096843
0.008469132
0.0002707846
0.0001081777
0.008454483
0.0003295012
0.0003235158
0.008297457
0.000382663
0.000517002
0.008030684
0.0004262528
0.0006685582
0.007698843
0.0004570785
0.0007631443
0.007352927
0.0004732717
0.0007927164
0.007043089
0.0004745533
0.0007578473
0.006811509
0.000462197
0.0006676753
0.006687695
0.0004386793
0.0005371515
0.006688017
0.000407068
0.0003822802
0.006818479
0.0003704358
0.0002163487
0.007079926
0.0003314824
4.718136e-05
0.007470313
0.0002922984
-0.0001204803
0.007991106
0.0002544893
-0.0002882591
0.008652808
0.0002186225
-0.0004646568
0.009483554
0.0001844933
-0.0006673038
0.01054695
0.0001516111
-0.0009320457
0.0001218621
-0.001227671
0.002078682
2.108464e-07
-0.0005564068
0.002487746
3.135168e-06
-0.0004133913
0.002985167
4.337825e-06
-0.0005043994
0.003575438
4.567299e-06
-0.0006005912
0.004246491
4.022256e-06
-0.0006814333
0.004967306
2.695908e-06
-0.0007251334
0.005702616
5.8177e-07
-0.0007252856
0.006417557
-2.249637e-06
-0.000680729
0.007077598
-5.69932e-06
-0.000591154
0.007648721
-9.603817e-06
-0.0004572346
0.008098927
-1.375779e-05
-0.0002822164
0.008402162
-1.792774e-05
-7.442332e-05
0.008541236
-2.186616e-05
0.0001535875
0.008516798
-2.531663e-05
0.0003792643
0.00834575
-2.803481e-05
0.0005817527
0.008061799
-2.98207e-05
0.0007400289
0.007711221
-3.052883e-05
0.0008381884
0.007346873
-3.00864e-05
0.0008677069
0.007020695
-2.851138e-05
0.0008292419
0.006776178
-2.591709e-05
0.0007326275
0.006643415
-2.250189e-05
0.0005939393
0.006638652
-1.852073e-05
0.0004303458
0.006767277
-1.42464e-05
0.0002560517
0.007029312
-9.928836e-06
7.936835e-05
0.007421748
-5.722908e-06
-9.442161e-05
0.007945077
-1.777236e-06
-0.0002670708
0.008608751
1.740345e-06
-0.0004467999
0.009439838
4.644247e-06
-0.0006512451
0.01050098
6.734047e-06
-0.0009162714
7.677119e-06
-0.001211131
0.002079851
7.019947e-06
-0.0005564907
0.002488814
7.533368e-06
-0.000413354
0.002985965
1.144312e-05
-0.0005042464
0.003575867
1.504326e-05
-0.0006003668
0.004246521
1.45531e-05
-0.0006811722
0.004966951
7.1304e-06
-0.0007248522
0.005701966
-9.419714e-06
-0.0007250008
0.006416713
-3.653591e-05
-0.0006804487
0.007076714
-7.479901e-05
-0.0005908889
0.007647974
-0.0001238537
-0.0004569981
0.008098504
-0.0001822499
-0.0002820268
0.008402249
-0.0002473587
-7.430313e-05
0.008541986
-0.0003152219
0.0001536282
0.00851833
-0.0003808643
0.000379211
0.008348121
-0.0004394338
0.0005816142
0.008064996
-0.0004865185
0.0007398274
0.007715157
-0.0005186472
0.0008379597
0.007351401
-0.0005338237
0.0008674938
0.007025626
-0.0005318229
0.0008290852
0.006781308
-0.0005141605
0.0007325576
0.006648549
-0.000483718
0.0005939711
0.006643621
-0.0004440774
0.0004304788
0.00677196
-0.0003988618
0.0002562703
0.007033671
-0.0003512894
7.964276e-05
0.007425749
-0.0003037078
-9.410162e-05
0.007948688
-0.0002580197
-0.000266704
0.008611942
-0.000215137
-0.0004463852
0.009442591
-0.0001752271
-0.0006507855
0.01050327
-0.0001381845
-0.0009157651
-0.0001063253
-0.001210676
0.002060845
1.371806e-05
-0.0005537778
0.002467365
1.444973e-05
-0.00041343
0.002960432
2.334285e-05
-0.0005049574
0.003544679
3.23703e-05
-0.0006015634
0.004208251
3.393507e-05
-0.0006829424
0.004920587
2.246745e-05
-0.0007276619
0.005646972
-6.156459e-06
-0.0007296367
0.006353295
-5.480249e-05
-0.0006880454
0.007005895
-0.0001245466
-0.0006028414
0.007571742
-0.0002147245
-0.0004749648
0.008019906
-0.0003226161
-0.0003077888
0.00832519
-0.0004433434
-0.0001092898
0.008471457
-0.0005698422
0.000108362
0.008459143
-0.0006919833
0.00032344
0.008304597
-0.0008015822
0.0005166999
0.008040236
-0.0008902515
0.0006680973
0.007710538
-0.00095157
0.0007626232
0.007366327
-0.0009818614
0.0007922492
0.00705765
-0.0009806871
0.0007575406
0.006826646
-0.0009507659
0.0006676073
0.006702845
-0.0008972813
0.0005373601
0.006702689
-0.0008266853
0.0003827597
0.006832305
-0.0007455321
0.0002170491
0.007092838
-0.0006597812
4.795214e-05
0.007482207
-0.0005734548
-0.0001196294
0.008001863
-0.0004903861
-0.0002872974
0.008662335
-0.0004120555
-0.0004635617
0.009491826
-0.0003386474
-0.0006660787
0.01055405
-0.0002696861
-0.0009307289
-0.0002089275
-0.001227312
0.002022758
2.01919e-05
-0.0005483558
0.002424559
2.624224e-05
-0.000413588
0.002909792
4.44742e-05
-0.0005063546
0.003483195
6.281218e-05
-0.0006038352
0.004133192
7.016887e-05
-0.0006862203
0.004829996
5.851679e-05
-0.0007328435
0.005539988
2.20516e-05
-0.0007381901
0.006230281
-4.302214e-05
-0.0007020629
0.006868846
-0.0001381784
-0.0006249231
0.00742443
-0.0002621545
-0.0005081446
0.007868043
-0.000410945
-0.0003552752
0.008176012
-0.0005775536
-0.000173751
0.008334556
-0.0007520897
2.371067e-05
0.008342886
-0.0009217152
0.0002214081
0.008217312
-0.001074038
0.000398035
0.007987704
-0.001197855
0.0005372151
0.0076954
-0.001284594
0.0006253318
0.007387627
-0.001329261
0.0006551734
0.007111048
-0.001331216
0.0006271073
0.006905334
-0.001294012
0.0005489591
0.006798922
-0.001224472
0.0004336003
0.006808494
-0.001131156
0.0002948945
0.006941273
-0.001022772
0.0001444561
0.007200449
-0.0009072425
-1.172139e-05
0.007585308
-0.0007909446
-0.0001673752
0.008099379
-0.000678301
-0.0003261633
0.008755221
-0.0005715983
-0.000496306
0.009583167
-0.0004710582
-0.0006955429
0.01064915
-0.0003758152
-0.0009598593
-0.0002906804
-0.001260025
0.001967704
2.641313e-05
-0.0005405543
0.00236262
4.514495e-05
-0.0004138127
0.002836365
7.882263e-05
-0.000508085
0.00339391
0.0001117938
-0.0006065177
0.00402419
0.0001299274
-0.0006900282
0.004698653
0.0001231077
-0.0007390441
0.005385407
8.419554e-05
-0.0007488894
0.006053252
9.125255e-06
-0.0007199827
0.006672458
-0.0001037396
-0.0006536366
0.007214204
-0.0002522753
-0.0005516167
0.007652047
-0.0004311116
-0.0004176686
0.007964635
-0.0006314704
-0.0002586644
0.008139827
-0.0008414076
-8.586813e-05
0.008177053
-0.001046525
8.759009e-05
0.008091241
-0.001230815
0.0002425945
0.007909141
-0.001381764
0.0003660127
0.007667875
-0.001489154
0.0004458286
0.007409904
-0.001547095
0.0004758062
0.00717744
-0.001554784
0.0004560332
0.007006881
-0.001516158
0.0003927026
0.006925147
-0.001438889
0.0002961484
0.006949178
-0.001332782
0.0001775929
0.007087852
-0.001208112
4.666314e-05
0.007345919
-0.001073703
-9.161163e-05
0.007725303
-0.0009377298
-0.000232605
0.008232271
-0.0008055165
-0.000379759
0.008882359
-0.0006797147
-0.0005419777
0.009708868
-0.0005604901
-0.0007370834
0.0107809
-0.0004465523
-0.001001304
-0.0003435592
-0.001306826
0.0018987
3.230087e-05
-0.0005301565
0.002284508
7.29817e-05
-0.0004136386
0.002743163
0.000129637
-0.0005094621
0.003280009
0.0001835145
-0.000608558
0.003884854
0.0002180132
-0.0006929215
0.004530922
0.0002214243
-0.0007443763
0.005188518
0.00018584
-0.000759233
0.005829269
0.0001070235
-0.0007386414
0.006425479
-1.539187e-05
-0.0006845503
0.006951425
-0.0001788692
-0.0005993459
0.007383503
-0.0003764906
-0.0004866924
0.007702925
-0.0005980204
-0.0003528663
0.007898775
-0.0008300577
-0.0002071944
0.007971519
-0.001056977
-6.228708e-05
0.007932755
-0.0012628
7.075354e-05
0.007807067
-0.00143259
0.0001765175
0.007626119
-0.001554947
0.0002467427
0.007427101
-0.00162443
0.0002763541
0.007247187
-0.001639844
0.0002649735
0.007119046
-0.001605085
0.0002170678
0.007067882
-0.00152812
0.0001403938
0.007110606
-0.001418901
4.339237e-05
0.007257943
-0.001288479
-6.697254e-05
0.007515735
-0.001146902
-0.0001845982
0.007889481
-0.001002669
-0.0003088113
0.00838883
-0.0008617491
-0.0004431217
0.009032844
-0.0007271159
-0.0005966183
0.009858508
-0.000598805
-0.0007873536
0.01093877
-0.0004748493
-0.00105197
-0.0003601428
-0.001364191
0.00181929
3.787471e-05
-0.0005174918
0.002193702
0.0001112911
-0.000412716
0.002633561
0.0001993249
-0.0005095406
0.003144908
0.0002806779
-0.0006085024
0.003718985
0.0003369713
-0.0006930276
0.004331476
0.0003555123
-0.0007465719
0.004955496
0.0003282952
-0.0007664691
0.005565436
0.0002517063
-0.0007546165
0.006137087
0.0001263499
-0.0007133867
0.006647004
-4.323375e-05
-0.000645547
0.007074517
-0.000249305
-0.0005546927
0.007403256
-0.0004804704
-0.0004462848
0.007623724
-0.000722466
-0.0003280544
0.007735709
-0.0009592921
-0.0002096665
0.00774922
-0.00117469
-0.0001016176
0.007685152
-0.001354124
-1.439626e-05
0.007569226
-0.001486766
4.774676e-05
0.00743416
-0.00156547
7.610614e-05
0.00731166
-0.001589217
7.187226e-05
0.007230423
-0.00156179
3.794183e-05
0.007214377
-0.001490735
-2.13404e-05
0.007279235
-0.001386413
-9.734777e-05
0.007436829
-0.001259528
-0.0001865479
0.007695577
-0.001120512
-0.0002851414
0.008064254
-0.0009782005
-0.00039315
0.008556191
-0.0008388416
-0.0005148493
0.00919443
-0.0007056032
-0.0006597562
0.01002039
-0.000578336
-0.0008464343
0.01111199
-0.0004542163
-0.001112233
-0.0003367944
-0.001433199
0.001733431
4.315396e-05
-0.0005026418
0.00209386
0.0001611627
-0.0004102959
0.002510883
0.0002892145
-0.0005069062
0.00299181
0.0004041664
-0.0006044092
0.003530118
0.0004867322
-0.0006880633
0.004104724
0.0005240475
-0.0007431352
0.004692107
0.0005088281
-0.0007679107
0.00526978
0.0004388519
-0.0007648134
0.005816365
0.0003163465
-0.0007365772
0.006311633
0.0001474354
-0.0006859335
0.006736929
-5.837433e-05
-0.0006162223
0.007077765
-0.0002892871
-0.0005320169
0.007325667
-0.0005307758
-0.0004395887
0.007479914
-0.000767082
-0.0003464551
0.007548421
-0.0009826092
-0.0002605858
0.007547252
-0.001163541
-0.0001894124
0.007498738
-0.001299164
-0.0001390869
0.007429361
-0.001383193
-0.0001128987
0.007366192
-0.001414184
-0.0001118647
0.00733417
-0.001395417
-0.0001343514
0.007354235
-0.001334001
-0.0001767997
0.007442595
-0.001239527
-0.0002352474
0.007611816
-0.001122654
-0.0003060977
0.00787263
-0.0009936611
-0.0003876676
0.008236915
-0.0008614407
-0.0004810482
0.008721727
-0.0007324672
-0.0005911902
0.009354431
-0.0006100898
-0.0007282207
0.0101815
-0.0004939623
-0.000911445
0.01128659
-0.0003801549
-0.001179158
-0.0002698307
-0.001510265
0.001645185
4.819021e-05
-0.0004855003
0.001988354
0.0002230885
-0.0004050901
0.002377869
0.0003991885
-0.0004994834
0.002823215
0.0005525321
-0.000593706
0.003321115
0.0006641516
-0.0006753143
0.00385454
0.0007220944
-0.0007314682
0.004403755
0.0007208223
-0.0007612054
0.004949429
0.0006603071
-0.0007671259
0.005472735
0.0005449747
-0.0007519306
0.00595567
0.0003826773
-0.0007181746
0.006382024
0.0001839829
-0.0006687099
0.006737996
-3.816022e-05
-0.0006070975
0.007015581
-0.0002701614
-0.0005381983
0.007213231
-0.0004969023
-0.0004678277
0.007336642
-0.0007039471
-0.0004020729
0.007398219
-0.0008785455
-0.0003465717
0.007415867
-0.001010931
-0.0003058811
0.00741098
-0.001095357
-0.0002829489
0.007406066
-0.001130428
-0.0002788428
0.007422515
-0.001119018
-0.0002928489
0.007479083
-0.001067583
-0.0003229873
0.007591489
-0.0009850439
-0.0003668906
0.007773057
-0.0008815075
-0.0004227163
0.008036466
-0.0007670187
-0.0004900528
0.008396475
-0.0006505512
-0.0005709016
0.008873813
-0.000538867
-0.0006709406
0.009500405
-0.0004356597
-0.0008010258
0.01032834
-0.0003405518
-0.0009813518
0.01144756
-0.0002484407
-0.00125093
-0.0001557074
-0.001593331
0.001558431
5.320828e-05
-0.0004656779
0.001879828
0.0002967287
-0.0003950336
0.002236315
0.0005270094
-0.0004843026
0.002640792
0.0007211486
-0.0005730897
0.003094355
0.0008622957
-0.0006517031
0.003584732
0.0009408651
-0.0007091444
0.004096142
0.0009541806
-0.0007447668
0.004612111
0.0009051665
-0.0007608265
0.005115807
0.0008007592
-0.0007594807
0.005590579
0.0006506124
-0.0007427059
0.006021152
0.0004661305
-0.0007127206
0.006395337
0.000259992
-0.0006723374
0.006704507
4.572019e-05
-0.0006250521
0.006945668
-0.0001629595
-0.0005751043
0.007122423
-0.000353485
-0.0005272172
0.007244049
-0.0005143612
-0.0004858116
0.007324387
-0.0006368331
-0.000454437
0.007380504
-0.0007159265
-0.0004355491
0.00743084
-0.000750429
-0.0004303356
0.007493518
-0.0007429092
-0.0004387891
0.007585218
-0.0006992102
-0.0004600744
0.007720885
-0.0006275832
-0.0004931292
0.00791431
-0.0005375948
-0.0005373396
0.008179575
-0.0004389753
-0.0005933106
0.008534225
-0.0003413998
-0.0006638034
0.009002311
-0.0002517122
-0.0007552434
0.009620447
-0.0001745723
-0.0008792257
0.01044683
-0.0001099445
-0.001056989
0.01157928
-5.144466e-05
-0.00132945
9.727213e-06
-0.001682825
0.001476535
5.913561e-05
-0.0004424215
0.001769733
0.0003805003
-0.0003769664
0.002087009
0.0006670298
-0.0004572929
0.002445926
0.0009008027
-0.000538567
0.00285283
0.001069564
-0.0006141699
0.00330057
0.001167666
-0.0006745394
0.003777007
0.001196329
-0.0007185849
0.004267841
0.00116175
-0.000747419
0.004757344
0.001073295
-0.0007620399
0.005229392
0.000941982
-0.0007634193
0.005668886
0.000779586
-0.0007529509
0.006063346
0.0005982334
-0.0007327036
0.006404246
0.0004102219
-0.0007054048
0.006688194
0.0002274373
-0.0006743464
0.006915737
6.169434e-05
-0.0006427258
0.007093071
-7.75557e-05
-0.0006141414
0.007231038
-0.0001831388
-0.0005916633
0.007343015
-0.0002504876
-0.0005774181
0.007443939
-0.0002785845
-0.0005727708
0.007549019
-0.0002697304
-0.0005782606
0.00767293
-0.0002292666
-0.0005938571
0.007829661
-0.0001649085
-0.0006194076
0.008033199
-8.595992e-05
-0.0006551746
0.008297523
-7.40452e-07
-0.0007025618
0.00864422
7.658351e-05
-0.0007646834
0.009099299
0.0001418722
-0.0008486667
0.009704094
0.0001874558
-0.0009668263
0.01052353
0.0002120875
-0.001141473
0.01166443
0.0002227314
-0.001415076
0.0002355023
-0.001778457
0.001401267
6.834119e-05
-0.0004144318
0.001657776
0.0004703937
-0.0003463987
0.001930288
0.0008079273
-0.0004134066
0.002241345
0.001075865
-0.0004861172
0.002602539
0.001269177
-0.0005608068
0.003011497
0.00138705
-0.0006283419
0.003458868
0.00143477
-0.0006858146
0.003931403
0.001421386
-0.0007321739
0.00441345
0.001357791
-0.0007665459
0.004888494
0.001255473