/*--------------------------------*- C++ -*----------------------------------*\
| =========                 |                                                 |
| \\      /  F ield         | OpenFOAM: The Open Source CFD Toolbox           |
|  \\    /   O peration     | Version:  2506                                  |
|   \\  /    A nd           | Website:  www.openfoam.com                      |
|    \\/     M anipulation  |                                                 |
\*---------------------------------------------------------------------------*/
FoamFile
{
    version     2.0;
    format      ascii;
    arch        "LSB;label=32;scalar=64";
    class       volScalarField;
    location    "500/air";
    object      rho;
}
// * * * * * * * * * * * * * * * * * * * * * * * * * * * * * * * * * * * * * //

dimensions      [1 -3 0 0 0 0 0];

internalField   nonuniform List<scalar> 
33752
(
1.158594
1.158538
1.158494
1.158456
1.15842
1.158387
1.158355
1.158325
1.158297
1.15827
1.158244
1.158219
1.158196
1.158174
1.158154
1.158135
1.158118
1.158102
1.158088
1.158076
1.158066
1.158058
1.158051
1.158045
1.158041
1.158038
1.158036
1.158035
1.158035
1.158034
1.158593
1.158535
1.158491
1.158453
1.158418
1.158384
1.158353
1.158323
1.158294
1.158267
1.158241
1.158217
1.158193
1.158171
1.158151
1.158132
1.158114
1.158099
1.158085
1.158073
1.158063
1.158054
1.158047
1.158042
1.158038
1.158036
1.158034
1.158033
1.158032
1.158032
1.158593
1.158533
1.158488
1.15845
1.158414
1.158381
1.158349
1.158319
1.15829
1.158263
1.158237
1.158212
1.158188
1.158166
1.158145
1.158125
1.158108
1.158092
1.158078
1.158066
1.158056
1.158048
1.158041
1.158037
1.158033
1.15803
1.158029
1.158028
1.158028
1.158028
1.158593
1.15853
1.158485
1.158446
1.15841
1.158377
1.158345
1.158315
1.158285
1.158258
1.158231
1.158205
1.158181
1.158158
1.158136
1.158116
1.158098
1.158082
1.158068
1.158056
1.158047
1.158039
1.158033
1.158028
1.158025
1.158023
1.158022
1.158022
1.158022
1.158022
1.158592
1.158528
1.158482
1.158442
1.158406
1.158372
1.15834
1.158309
1.15828
1.158251
1.158223
1.158197
1.158171
1.158147
1.158125
1.158104
1.158086
1.158069
1.158055
1.158044
1.158034
1.158027
1.158021
1.158018
1.158015
1.158014
1.158014
1.158014
1.158014
1.158014
1.158592
1.158527
1.158479
1.158438
1.158402
1.158367
1.158335
1.158303
1.158273
1.158243
1.158214
1.158187
1.15816
1.158135
1.158111
1.15809
1.15807
1.158053
1.158039
1.158028
1.158019
1.158012
1.158007
1.158005
1.158003
1.158003
1.158003
1.158004
1.158005
1.158006
1.158592
1.158525
1.158476
1.158435
1.158398
1.158363
1.158329
1.158297
1.158265
1.158234
1.158204
1.158175
1.158147
1.15812
1.158095
1.158072
1.158052
1.158035
1.158021
1.158009
1.158001
1.157995
1.157992
1.15799
1.157989
1.15799
1.157991
1.157993
1.157995
1.157996
1.158591
1.158524
1.158474
1.158432
1.158394
1.158358
1.158323
1.15829
1.158257
1.158225
1.158193
1.158162
1.158132
1.158104
1.158077
1.158053
1.158032
1.158014
1.158
1.157989
1.157981
1.157976
1.157974
1.157973
1.157974
1.157976
1.157979
1.157981
1.157984
1.157985
1.158591
1.158523
1.158472
1.158429
1.15839
1.158353
1.158318
1.158283
1.158249
1.158215
1.158182
1.158149
1.158117
1.158087
1.158058
1.158033
1.15801
1.157992
1.157977
1.157967
1.15796
1.157956
1.157955
1.157956
1.157959
1.157962
1.157966
1.157969
1.157972
1.157974
1.158591
1.158522
1.15847
1.158426
1.158386
1.158349
1.158312
1.158276
1.158241
1.158205
1.15817
1.158135
1.158101
1.158069
1.158038
1.158011
1.157987
1.157968
1.157953
1.157943
1.157937
1.157935
1.157935
1.157938
1.157942
1.157947
1.157952
1.157957
1.157961
1.157964
1.158591
1.158521
1.158469
1.158424
1.158383
1.158344
1.158307
1.15827
1.158233
1.158196
1.158159
1.158122
1.158086
1.158051
1.158018
1.157989
1.157964
1.157944
1.157929
1.157919
1.157915
1.157914
1.157916
1.157921
1.157927
1.157933
1.15794
1.157946
1.157951
1.157954
1.158591
1.158521
1.158468
1.158422
1.15838
1.158341
1.158302
1.158264
1.158226
1.158187
1.158148
1.158109
1.158071
1.158034
1.158
1.157969
1.157942
1.157921
1.157906
1.157897
1.157893
1.157894
1.157898
1.157905
1.157913
1.157921
1.157929
1.157936
1.157941
1.157945
1.158591
1.15852
1.158467
1.158421
1.158378
1.158338
1.158299
1.158259
1.15822
1.15818
1.15814
1.158099
1.158059
1.15802
1.157984
1.157951
1.157923
1.157901
1.157886
1.157878
1.157875
1.157877
1.157883
1.157892
1.157902
1.157912
1.157921
1.157929
1.157935
1.157939
1.158589
1.15852
1.158466
1.158419
1.158377
1.158336
1.158296
1.158256
1.158216
1.158175
1.158133
1.158092
1.15805
1.15801
1.157972
1.157938
1.157909
1.157886
1.157871
1.157863
1.157861
1.157864
1.157872
1.157887
1.157899
1.157911
1.157921
1.15793
1.157936
1.157937
1.158589
1.158519
1.158466
1.158419
1.158376
1.158335
1.158294
1.158254
1.158213
1.158172
1.15813
1.158087
1.158045
1.158004
1.157965
1.15793
1.157901
1.157878
1.157863
1.157855
1.157853
1.157857
1.157866
1.157882
1.157895
1.157908
1.157919
1.157928
1.157935
1.157939
1.158589
1.158519
1.158465
1.158419
1.158376
1.158335
1.158294
1.158254
1.158213
1.158172
1.15813
1.158087
1.158045
1.158003
1.157965
1.15793
1.1579
1.157877
1.157862
1.157854
1.157853
1.157857
1.157866
1.157882
1.157895
1.157908
1.157919
1.157928
1.157935
1.15794
1.158589
1.15852
1.158466
1.158419
1.158376
1.158335
1.158295
1.158255
1.158215
1.158174
1.158132
1.158091
1.158049
1.158008
1.15797
1.157936
1.157907
1.157885
1.15787
1.157861
1.15786
1.157863
1.157871
1.157886
1.157899
1.157911
1.157922
1.157931
1.157938
1.157942
1.158589
1.15852
1.158466
1.15842
1.158378
1.158337
1.158298
1.158258
1.158219
1.158179
1.158138
1.158097
1.158057
1.158018
1.157982
1.157949
1.157921
1.157899
1.157884
1.157875
1.157873
1.157875
1.157882
1.157896
1.157907
1.157918
1.157928
1.157936
1.157942
1.157946
1.158591
1.158521
1.158467
1.158422
1.15838
1.15834
1.158301
1.158263
1.158224
1.158185
1.158146
1.158107
1.158069
1.158032
1.157997
1.157966
1.157939
1.157918
1.157903
1.157894
1.15789
1.157891
1.157896
1.157908
1.157917
1.157926
1.157935
1.157942
1.157948
1.157952
1.158591
1.158521
1.158469
1.158424
1.158382
1.158343
1.158306
1.158268
1.158231
1.158194
1.158156
1.158119
1.158082
1.158047
1.158015
1.157986
1.15796
1.15794
1.157925
1.157916
1.157911
1.15791
1.157913
1.157918
1.157925
1.157932
1.157939
1.157945
1.15795
1.157953
1.158591
1.158522
1.15847
1.158426
1.158385
1.158347
1.158311
1.158274
1.158238
1.158203
1.158167
1.158132
1.158097
1.158065
1.158034
1.158007
1.157983
1.157964
1.157949
1.157939
1.157933
1.157931
1.157931
1.157935
1.157939
1.157944
1.15795
1.157954
1.157958
1.157961
1.158591
1.158523
1.158472
1.158428
1.158389
1.158352
1.158316
1.158281
1.158247
1.158212
1.158178
1.158145
1.158113
1.158082
1.158053
1.158028
1.158005
1.157987
1.157972
1.157961
1.157955
1.157951
1.15795
1.157952
1.157954
1.157958
1.157962
1.157966
1.157968
1.157971
1.158591
1.158524
1.158474
1.158431
1.158393
1.158357
1.158322
1.158288
1.158255
1.158222
1.15819
1.158158
1.158128
1.158099
1.158072
1.158048
1.158027
1.158009
1.157994
1.157983
1.157976
1.157971
1.157969
1.157969
1.15797
1.157972
1.157975
1.157977
1.157976
1.15798
1.158592
1.158525
1.158476
1.158435
1.158397
1.158362
1.158328
1.158295
1.158263
1.158231
1.1582
1.158171
1.158142
1.158115
1.15809
1.158067
1.158046
1.158029
1.158015
1.158003
1.157995
1.157989
1.157986
1.157984
1.157984
1.157985
1.157987
1.157988
1.15799
1.157991
1.158592
1.158527
1.158479
1.158438
1.158401
1.158367
1.158333
1.158301
1.15827
1.15824
1.15821
1.158182
1.158155
1.158129
1.158105
1.158083
1.158064
1.158047
1.158033
1.158021
1.158012
1.158006
1.158002
1.157999
1.157998
1.157998
1.157998
1.157999
1.158
1.158001
1.158592
1.158529
1.158482
1.158442
1.158406
1.158372
1.158339
1.158307
1.158277
1.158248
1.158219
1.158192
1.158166
1.158142
1.158119
1.158098
1.158079
1.158063
1.158049
1.158037
1.158028
1.15802
1.158015
1.158012
1.15801
1.158009
1.158008
1.158009
1.158009
1.15801
1.158593
1.158531
1.158486
1.158447
1.158411
1.158377
1.158344
1.158313
1.158283
1.158254
1.158227
1.1582
1.158175
1.158152
1.15813
1.15811
1.158091
1.158075
1.158061
1.15805
1.15804
1.158032
1.158026
1.158022
1.158019
1.158018
1.158017
1.158017
1.158017
1.158017
1.158593
1.158534
1.15849
1.158451
1.158415
1.158381
1.158349
1.158318
1.158288
1.15826
1.158233
1.158207
1.158183
1.15816
1.158138
1.158119
1.158101
1.158085
1.158071
1.158059
1.158049
1.158041
1.158035
1.15803
1.158027
1.158025
1.158023
1.158023
1.158023
1.158023
1.158594
1.158537
1.158494
1.158455
1.158419
1.158385
1.158353
1.158322
1.158292
1.158264
1.158237
1.158212
1.158188
1.158165
1.158144
1.158125
1.158107
1.158092
1.158078
1.158066
1.158056
1.158047
1.158041
1.158036
1.158032
1.15803
1.158028
1.158027
1.158027
1.158027
1.158594
1.15854
1.158497
1.158458
1.158422
1.158388
1.158355
1.158324
1.158295
1.158267
1.15824
1.158215
1.158191
1.158168
1.158148
1.158128
1.158111
1.158095
1.158081
1.158069
1.158059
1.158051
1.158044
1.158039
1.158035
1.158032
1.158031
1.15803
1.158029
1.158029
1.158553
1.158507
1.158465
1.158425
1.158387
1.158351
1.158318
1.158286
1.158257
1.158228
1.158202
1.158176
1.158152
1.15813
1.158109
1.158089
1.158072
1.158056
1.158042
1.15803
1.15802
1.158012
1.158005
1.158
1.157996
1.157993
1.157991
1.157989
1.157988
1.157988
1.158549
1.158504
1.158462
1.158422
1.158385
1.158349
1.158316
1.158285
1.158255
1.158226
1.158199
1.158174
1.158149
1.158127
1.158105
1.158086
1.158068
1.158053
1.158039
1.158027
1.158017
1.158009
1.158002
1.157997
1.157993
1.15799
1.157988
1.157987
1.157986
1.157986
1.158548
1.158501
1.158458
1.158418
1.158381
1.158346
1.158313
1.158281
1.158251
1.158222
1.158195
1.158169
1.158144
1.158121
1.158099
1.158079
1.158062
1.158046
1.158032
1.15802
1.15801
1.158002
1.157996
1.157991
1.157988
1.157986
1.157984
1.157983
1.157982
1.157982
1.158547
1.158499
1.158455
1.158414
1.158377
1.158342
1.158309
1.158277
1.158246
1.158217
1.158189
1.158162
1.158136
1.158112
1.15809
1.15807
1.158052
1.158035
1.158022
1.15801
1.158001
1.157993
1.157988
1.157983
1.15798
1.157979
1.157977
1.157977
1.157976
1.157976
1.158546
1.158497
1.158451
1.158411
1.158373
1.158337
1.158304
1.158271
1.15824
1.15821
1.158181
1.158153
1.158126
1.158101
1.158078
1.158057
1.158038
1.158022
1.158008
1.157997
1.157988
1.157981
1.157976
1.157973
1.157971
1.157969
1.157969
1.157969
1.157969
1.157969
1.158546
1.158495
1.158448
1.158407
1.158369
1.158332
1.158298
1.158265
1.158233
1.158201
1.158171
1.158142
1.158114
1.158087
1.158063
1.158041
1.158022
1.158005
1.157991
1.15798
1.157972
1.157966
1.157962
1.15796
1.157959
1.157958
1.157959
1.157959
1.15796
1.15796
1.158545
1.158493
1.158446
1.158403
1.158364
1.158327
1.158292
1.158258
1.158224
1.158191
1.15816
1.158129
1.158099
1.158071
1.158045
1.158022
1.158002
1.157985
1.157972
1.157961
1.157954
1.157949
1.157946
1.157945
1.157945
1.157946
1.157947
1.157949
1.15795
1.157951
1.158545
1.158492
1.158443
1.1584
1.15836
1.158322
1.158286
1.15825
1.158215
1.158181
1.158147
1.158114
1.158083
1.158053
1.158025
1.158001
1.15798
1.157963
1.157949
1.157939
1.157933
1.157929
1.157928
1.157928
1.15793
1.157932
1.157935
1.157937
1.157939
1.15794
1.158545
1.158491
1.158441
1.158397
1.158356
1.158317
1.158279
1.158242
1.158206
1.15817
1.158134
1.158099
1.158065
1.158033
1.158004
1.157978
1.157956
1.157938
1.157925
1.157916
1.15791
1.157908
1.157908
1.15791
1.157914
1.157918
1.157922
1.157925
1.157928
1.15793
1.158544
1.15849
1.158439
1.158394
1.158352
1.158312
1.158273
1.158234
1.158196
1.158158
1.15812
1.158083
1.158046
1.158012
1.157981
1.157953
1.15793
1.157912
1.157899
1.157891
1.157887
1.157886
1.157888
1.157892
1.157898
1.157903
1.157909
1.157913
1.157917
1.157919
1.158544
1.158489
1.158437
1.158391
1.158348
1.158307
1.158267
1.158227
1.158187
1.158147
1.158107
1.158067
1.158028
1.157991
1.157958
1.157929
1.157904
1.157886
1.157873
1.157866
1.157863
1.157865
1.157869
1.157875
1.157882
1.157889
1.157896
1.157902
1.157907
1.157909
1.158544
1.158488
1.158436
1.158389
1.158345
1.158303
1.158262
1.15822
1.158179
1.158137
1.158094
1.158052
1.158011
1.157972
1.157936
1.157905
1.15788
1.157861
1.157849
1.157842
1.157841
1.157845
1.157851
1.157859
1.157868
1.157877
1.157885
1.157892
1.157898
1.157901
1.158544
1.158488
1.158435
1.158387
1.158342
1.158299
1.158257
1.158215
1.158172
1.158128
1.158084
1.15804
1.157997
1.157956
1.157918
1.157885
1.157859
1.15784
1.157828
1.157822
1.157823
1.157828
1.157836
1.157846
1.157857
1.157867
1.157877
1.157885
1.157891
1.157894
1.158544
1.158487
1.158434
1.158386
1.158341
1.158297
1.158254
1.158211
1.158167
1.158122
1.158077
1.158031
1.157986
1.157943
1.157904
1.157871
1.157843
1.157824
1.157812
1.157807
1.157809
1.157815
1.157825
1.157837
1.157849
1.157861
1.157872
1.15788
1.157887
1.15789
1.158544
1.158487
1.158434
1.158385
1.15834
1.158296
1.158252
1.158209
1.158164
1.158119
1.158073
1.158026
1.15798
1.157937
1.157897
1.157862
1.157835
1.157815
1.157803
1.157799
1.157801
1.157808
1.157819
1.157832
1.157845
1.157858
1.157869
1.157878
1.157885
1.157888
1.158544
1.158487
1.158434
1.158385
1.15834
1.158296
1.158252
1.158209
1.158164
1.158119
1.158072
1.158026
1.15798
1.157936
1.157896
1.157862
1.157834
1.157814
1.157803
1.157798
1.157801
1.157808
1.157819
1.157832
1.157845
1.157858
1.157869
1.157878
1.157885
1.157888
1.158544
1.158487
1.158434
1.158386
1.15834
1.158297
1.158254
1.158211
1.158167
1.158122
1.158076
1.15803
1.157985
1.157942
1.157903
1.157869
1.157842
1.157822
1.15781
1.157806
1.157807
1.157814
1.157824
1.157836
1.157849
1.157861
1.157872
1.157881
1.157887
1.157891
1.158544
1.158487
1.158435
1.158387
1.158342
1.158299
1.158257
1.158214
1.158171
1.158127
1.158083
1.158038
1.157995
1.157954
1.157916
1.157883
1.157857
1.157837
1.157825
1.15782
1.15782
1.157825
1.157834
1.157845
1.157857
1.157868
1.157877
1.157886
1.157892
1.157895
1.158544
1.158488
1.158436
1.158389
1.158345
1.158302
1.158261
1.158219
1.158178
1.158135
1.158093
1.15805
1.158009
1.15797
1.157934
1.157902
1.157877
1.157858
1.157845
1.157839
1.157838
1.157842
1.157848
1.157858
1.157867
1.157877
1.157885
1.157892
1.157898
1.157901
1.158544
1.158489
1.158437
1.158391
1.158348
1.158306
1.158266
1.158226
1.158186
1.158145
1.158105
1.158064
1.158025
1.157988
1.157954
1.157925
1.157901
1.157882
1.157869
1.157862
1.157859
1.157861
1.157865
1.157872
1.15788
1.157887
1.157894
1.1579
1.157905
1.157908
1.158545
1.15849
1.158439
1.158394
1.158351
1.158311
1.158272
1.158233
1.158195
1.158156
1.158118
1.15808
1.158043
1.158008
1.157977
1.157949
1.157926
1.157907
1.157894
1.157886
1.157882
1.157882
1.157884
1.157889
1.157894
1.1579
1.157906
1.15791
1.157914
1.157916
1.158545
1.158491
1.158441
1.158397
1.158356
1.158316
1.158279
1.158241
1.158204
1.158168
1.158131
1.158096
1.158061
1.158029
1.157999
1.157973
1.157951
1.157933
1.157919
1.15791
1.157905
1.157903
1.157903
1.157906
1.15791
1.157914
1.157918
1.157921
1.157924
1.157926
1.158545
1.158492
1.158444
1.1584
1.15836
1.158322
1.158285
1.158249
1.158214
1.158179
1.158145
1.158111
1.158079
1.158049
1.158021
1.157996
1.157975
1.157957
1.157944
1.157934
1.157927
1.157924
1.157922
1.157923
1.157925
1.157928
1.15793
1.157933
1.157935
1.157936
1.158546
1.158494
1.158446
1.158404
1.158365
1.158328
1.158292
1.158257
1.158223
1.15819
1.158157
1.158126
1.158095
1.158067
1.158041
1.158017
1.157997
1.15798
1.157966
1.157955
1.157948
1.157943
1.15794
1.157939
1.15794
1.157941
1.157942
1.157944
1.157945
1.157946
1.158546
1.158496
1.15845
1.158408
1.15837
1.158333
1.158299
1.158265
1.158232
1.1582
1.158169
1.158139
1.15811
1.158083
1.158058
1.158036
1.158016
1.157999
1.157985
1.157974
1.157966
1.15796
1.157956
1.157954
1.157953
1.157953
1.157954
1.157955
1.157955
1.157956
1.158547
1.158498
1.158453
1.158413
1.158375
1.158339
1.158305
1.158272
1.15824
1.158209
1.158179
1.15815
1.158123
1.158097
1.158073
1.158052
1.158033
1.158016
1.158002
1.157991
1.157982
1.157975
1.15797
1.157967
1.157965
1.157964
1.157964
1.157964
1.157964
1.157964
1.158547
1.1585
1.158457
1.158417
1.15838
1.158345
1.158311
1.158278
1.158246
1.158216
1.158187
1.158159
1.158133
1.158108
1.158085
1.158065
1.158046
1.15803
1.158016
1.158004
1.157994
1.157987
1.157981
1.157977
1.157975
1.157973
1.157972
1.157971
1.157971
1.157971
1.158548
1.158503
1.158461
1.158422
1.158385
1.15835
1.158316
1.158283
1.158252
1.158222
1.158194
1.158166
1.158141
1.158117
1.158095
1.158074
1.158056
1.15804
1.158026
1.158014
1.158004
1.157996
1.15799
1.157985
1.157982
1.15798
1.157978
1.157977
1.157977
1.157977
1.15855
1.158507
1.158465
1.158426
1.158389
1.158354
1.15832
1.158287
1.158256
1.158226
1.158198
1.158172
1.158146
1.158123
1.158101
1.158081
1.158063
1.158047
1.158033
1.158021
1.158011
1.158002
1.157996
1.157991
1.157987
1.157985
1.157983
1.157982
1.157981
1.157981
1.158554
1.15851
1.158468
1.158429
1.158392
1.158356
1.158322
1.158289
1.158258
1.158229
1.158201
1.158174
1.158149
1.158126
1.158104
1.158084
1.158066
1.15805
1.158036
1.158024
1.158014
1.158006
1.157999
1.157994
1.15799
1.157987
1.157985
1.157984
1.157983
1.157983
1.158507
1.158468
1.158428
1.158387
1.158348
1.158311
1.158277
1.158245
1.158214
1.158186
1.158159
1.158133
1.158109
1.158086
1.158065
1.158046
1.158028
1.158013
1.157999
1.157988
1.157978
1.15797
1.157963
1.157958
1.157955
1.157952
1.15795
1.157949
1.157948
1.157947
1.158505
1.158464
1.158424
1.158384
1.158345
1.158309
1.158275
1.158243
1.158213
1.158184
1.158156
1.15813
1.158106
1.158083
1.158062
1.158042
1.158025
1.158009
1.157996
1.157984
1.157975
1.157967
1.15796
1.157956
1.157952
1.157949
1.157948
1.157946
1.157946
1.157945
1.158503
1.15846
1.158419
1.158379
1.158341
1.158306
1.158272
1.15824
1.158209
1.15818
1.158152
1.158125
1.1581
1.158077
1.158055
1.158035
1.158018
1.158002
1.157989
1.157977
1.157968
1.15796
1.157955
1.15795
1.157947
1.157945
1.157943
1.157942
1.157942
1.157942
1.158501
1.158457
1.158414
1.158374
1.158337
1.158301
1.158267
1.158235
1.158204
1.158174
1.158145
1.158118
1.158092
1.158068
1.158046
1.158025
1.158007
1.157991
1.157978
1.157967
1.157958
1.157951
1.157946
1.157942
1.157939
1.157938
1.157937
1.157936
1.157936
1.157936
1.1585
1.158454
1.15841
1.15837
1.158332
1.158296
1.158262
1.158229
1.158197
1.158166
1.158137
1.158108
1.158081
1.158056
1.158033
1.158012
1.157993
1.157977
1.157964
1.157953
1.157945
1.157939
1.157934
1.157931
1.15793
1.157929
1.157928
1.157928
1.157929
1.157929
1.158499
1.158451
1.158407
1.158366
1.158327
1.158291
1.158256
1.158222
1.158189
1.158157
1.158126
1.158096
1.158068
1.158041
1.158017
1.157995
1.157976
1.15796
1.157946
1.157936
1.157929
1.157923
1.15792
1.157918
1.157918
1.157918
1.157918
1.157919
1.15792
1.15792
1.158499
1.15845
1.158404
1.158362
1.158322
1.158285
1.158249
1.158214
1.15818
1.158146
1.158114
1.158082
1.158052
1.158024
1.157998
1.157975
1.157955
1.157939
1.157926
1.157916
1.157909
1.157905
1.157903
1.157903
1.157904
1.157905
1.157907
1.157909
1.15791
1.157911
1.158498
1.158448
1.158401
1.158358
1.158318
1.158279
1.158242
1.158206
1.15817
1.158135
1.1581
1.158066
1.158034
1.158004
1.157976
1.157952
1.157931
1.157914
1.157902
1.157893
1.157888
1.157885
1.157885
1.157886
1.157889
1.157892
1.157894
1.157897
1.157899
1.1579
1.158498
1.158447
1.158398
1.158354
1.158313
1.158274
1.158235
1.158197
1.15816
1.158122
1.158085
1.158049
1.158014
1.157981
1.157952
1.157926
1.157905
1.157888
1.157876
1.157868
1.157864
1.157864
1.157865
1.157868
1.157873
1.157877
1.157881
1.157885
1.157888
1.15789
1.158497
1.158445
1.158396
1.158351
1.158309
1.158268
1.158228
1.158189
1.158149
1.15811
1.15807
1.158031
1.157993
1.157958
1.157926
1.157899
1.157877
1.15786
1.157848
1.157842
1.15784
1.157841
1.157845
1.15785
1.157856
1.157863
1.157869
1.157873
1.157877
1.157879
1.158497
1.158444
1.158394
1.158348
1.158305
1.158263
1.158222
1.158181
1.158139
1.158097
1.158055
1.158013
1.157973
1.157935
1.157901
1.157871
1.157848
1.157831
1.15782
1.157815
1.157815
1.157819
1.157825
1.157833
1.157841
1.157849
1.157856
1.157862
1.157867
1.157869
1.158497
1.158443
1.158392
1.158345
1.158301
1.158258
1.158216
1.158173
1.15813
1.158086
1.158041
1.157997
1.157953
1.157913
1.157876
1.157845
1.157821
1.157804
1.157794
1.157791
1.157792
1.157798
1.157807
1.157816
1.157827
1.157837
1.157845
1.157853
1.157858
1.157861
1.158497
1.158443
1.158391
1.158343
1.158298
1.158255
1.158211
1.158167
1.158122
1.158076
1.158029
1.157982
1.157937
1.157894
1.157855
1.157823
1.157798
1.15778
1.157771
1.157769
1.157773
1.157781
1.157791
1.157803
1.157815
1.157827
1.157837
1.157845
1.157851
1.157854
1.158496
1.158442
1.15839
1.158342
1.158296
1.158252
1.158208
1.158163
1.158117
1.158069
1.158021
1.157972
1.157924
1.157879
1.157839
1.157806
1.15778
1.157763
1.157754
1.157753
1.157758
1.157768
1.15778
1.157793
1.157807
1.15782
1.157831
1.157839
1.157846
1.157849
1.158496
1.158442
1.15839
1.158341
1.158295
1.158251
1.158206
1.15816
1.158114
1.158065
1.158016
1.157966
1.157918
1.157872
1.157831
1.157796
1.15777
1.157753
1.157745
1.157745
1.15775
1.157761
1.157774
1.157788
1.157803
1.157816
1.157827
1.157837
1.157843
1.157847
1.158496
1.158442
1.15839
1.158341
1.158295
1.15825
1.158206
1.15816
1.158113
1.158065
1.158016
1.157966
1.157917
1.157871
1.15783
1.157796
1.15777
1.157753
1.157744
1.157744
1.15775
1.15776
1.157773
1.157788
1.157802
1.157816
1.157827
1.157836
1.157843
1.157847
1.158496
1.158442
1.15839
1.158342
1.158296
1.158252
1.158207
1.158162
1.158116
1.158069
1.15802
1.157971
1.157923
1.157878
1.157838
1.157804
1.157778
1.157761
1.157753
1.157752
1.157757
1.157766
1.157779
1.157792
1.157806
1.157819
1.15783
1.157839
1.157845
1.157849
1.158497
1.158443
1.158391
1.158343
1.158298
1.158254
1.158211
1.158167
1.158121
1.158075
1.158028
1.157981
1.157935
1.157892
1.157853
1.15782
1.157795
1.157778
1.157769
1.157767
1.15777
1.157778
1.157789
1.157801
1.157814
1.157826
1.157836
1.157844
1.15785
1.157853
1.158497
1.158443
1.158393
1.158346
1.158301
1.158258
1.158216
1.158173
1.158129
1.158085
1.15804
1.157995
1.157951
1.15791
1.157873
1.157842
1.157818
1.157801
1.157791
1.157787
1.157789
1.157795
1.157804
1.157814
1.157825
1.157835
1.157844
1.157851
1.157857
1.15786
1.158497
1.158444
1.158394
1.158348
1.158305
1.158263
1.158221
1.15818
1.158138
1.158096
1.158053
1.158011
1.15797
1.157932
1.157897
1.157868
1.157844
1.157827
1.157816
1.157811
1.157811
1.157815
1.157821
1.157829
1.157838
1.157846
1.157854
1.15786
1.157865
1.157867
1.158498
1.158446
1.158397
1.158351
1.158309
1.158268
1.158228
1.158188
1.158148
1.158108
1.158068
1.158029
1.157991
1.157955
1.157922
1.157895
1.157872
1.157855
1.157843
1.157837
1.157835
1.157837
1.157841
1.157846
1.157853
1.157859
1.157865
1.15787
1.157874
1.157876
1.158498
1.158447
1.158399
1.158355
1.158314
1.158274
1.158235
1.158197
1.158159
1.158121
1.158084
1.158047
1.158011
1.157978
1.157948
1.157921
1.1579
1.157883
1.157871
1.157863
1.157859
1.157859
1.15786
1.157864
1.157868
1.157873
1.157878
1.157881
1.157884
1.157886
1.158499
1.158449
1.158402
1.158359
1.158319
1.15828
1.158243
1.158206
1.15817
1.158134
1.158098
1.158064
1.158031
1.158
1.157972
1.157947
1.157926
1.157909
1.157896
1.157888
1.157882
1.15788
1.15788
1.157881
1.157884
1.157887
1.15789
1.157893
1.157895
1.157896
1.158499
1.158451
1.158405
1.158363
1.158324
1.158287
1.15825
1.158215
1.15818
1.158146
1.158112
1.15808
1.158049
1.15802
1.157993
1.15797
1.15795
1.157933
1.15792
1.15791
1.157904
1.1579
1.157898
1.157898
1.157899
1.1579
1.157902
1.157904
1.157905
1.157906
1.1585
1.158453
1.158409
1.158368
1.15833
1.158293
1.158258
1.158223
1.15819
1.158157
1.158125
1.158094
1.158065
1.158038
1.158013
1.15799
1.157971
1.157954
1.157941
1.15793
1.157923
1.157918
1.157914
1.157913
1.157912
1.157913
1.157913
1.157914
1.157915
1.157916
1.158501
1.158456
1.158413
1.158373
1.158335
1.158299
1.158265
1.158231
1.158198
1.158167
1.158136
1.158107
1.158079
1.158053
1.158029
1.158007
1.157988
1.157972
1.157958
1.157947
1.157939
1.157933
1.157928
1.157926
1.157924
1.157923
1.157923
1.157923
1.157924
1.157924
1.158502
1.158459
1.158417
1.158378
1.158341
1.158306
1.158271
1.158238
1.158206
1.158175
1.158145
1.158117
1.15809
1.158065
1.158042
1.158021
1.158002
1.157986
1.157973
1.157961
1.157952
1.157945
1.15794
1.157936
1.157934
1.157932
1.157932
1.157931
1.157931
1.157931
1.158504
1.158463
1.158423
1.158384
1.158347
1.158311
1.158277
1.158244
1.158212
1.158181
1.158152
1.158125
1.158099
1.158074
1.158052
1.158031
1.158013
1.157997
1.157983
1.157972
1.157962
1.157955
1.157949
1.157944
1.157941
1.157939
1.157938
1.157937
1.157937
1.157936
1.158506
1.158467
1.158428
1.158389
1.158352
1.158316
1.158281
1.158248
1.158216
1.158186
1.158157
1.15813
1.158104
1.158081
1.158058
1.158038
1.15802
1.158004
1.15799
1.157979
1.157969
1.157961
1.157955
1.15795
1.157946
1.157944
1.157942
1.157941
1.15794
1.15794
1.158508
1.158471
1.158432
1.158393
1.158355
1.158319
1.158284
1.15825
1.158218
1.158188
1.15816
1.158133
1.158107
1.158084
1.158062
1.158042
1.158024
1.158008
1.157994
1.157982
1.157972
1.157964
1.157958
1.157953
1.157949
1.157946
1.157944
1.157943
1.157942
1.157942
1.158471
1.158434
1.158396
1.158351
1.158309
1.158271
1.158235
1.158203
1.158172
1.158143
1.158116
1.15809
1.158066
1.158043
1.158022
1.158003
1.157986
1.157971
1.157958
1.157946
1.157937
1.157929
1.157923
1.157919
1.157915
1.157912
1.157911
1.157909
1.157909
1.157908
1.158463
1.158425
1.158386
1.158345
1.158305
1.158268
1.158233
1.158201
1.15817
1.158141
1.158113
1.158087
1.158063
1.15804
1.158019
1.158
1.157982
1.157967
1.157954
1.157943
1.157934
1.157926
1.15792
1.157916
1.157912
1.15791
1.157908
1.157907
1.157907
1.157906
1.15846
1.158418
1.158378
1.158339
1.1583
1.158264
1.15823
1.158197
1.158166
1.158137
1.158109
1.158082
1.158057
1.158034
1.158012
1.157992
1.157975
1.15796
1.157947
1.157936
1.157927
1.15792
1.157914
1.15791
1.157907
1.157905
1.157904
1.157903
1.157903
1.157903
1.158457
1.158413
1.158372
1.158333
1.158295
1.158259
1.158225
1.158192
1.158161
1.158131
1.158102
1.158074
1.158048
1.158024
1.158002
1.157982
1.157964
1.157949
1.157936
1.157925
1.157917
1.15791
1.157905
1.157902
1.1579
1.157898
1.157898
1.157897
1.157897
1.157897
1.158456
1.15841
1.158367
1.158327
1.15829
1.158254
1.158219
1.158186
1.158154
1.158123
1.158093
1.158064
1.158037
1.158011
1.157988
1.157967
1.157949
1.157934
1.157921
1.157911
1.157903
1.157897
1.157894
1.157891
1.15789
1.157889
1.157889
1.15789
1.15789
1.15789
1.158455
1.158407
1.158363
1.158322
1.158284
1.158248
1.158213
1.158178
1.158145
1.158113
1.158081
1.158051
1.158022
1.157996
1.157971
1.157949
1.157931
1.157915
1.157903
1.157893
1.157886
1.157882
1.157879
1.157878
1.157878
1.157878
1.157879
1.15788
1.157881
1.157882
1.158454
1.158405
1.158359
1.158318
1.158279
1.158242
1.158206
1.15817
1.158136
1.158101
1.158068
1.158036
1.158005
1.157977
1.157951
1.157928
1.157908
1.157893
1.157881
1.157872
1.157866
1.157863
1.157862
1.157863
1.157864
1.157866
1.157868
1.15787
1.157871
1.157872
1.158453
1.158403
1.158356
1.158314
1.158274
1.158235
1.158198
1.158161
1.158125
1.158089
1.158053
1.158019
1.157985
1.157955
1.157927
1.157903
1.157882
1.157867
1.157855
1.157848
1.157844
1.157843
1.157843
1.157846
1.157849
1.157852
1.157855
1.157858
1.157861
1.157862
1.158453
1.158401
1.158353
1.15831
1.158269
1.158229
1.15819
1.158152
1.158114
1.158075
1.158037
1.158
1.157964
1.15793
1.1579
1.157874
1.157853
1.157838
1.157827
1.157821
1.157819
1.15782
1.157823
1.157827
1.157832
1.157838
1.157842
1.157847
1.157849
1.157851
1.158452
1.158399
1.158351
1.158306
1.158264
1.158223
1.158183
1.158143
1.158102
1.158061
1.15802
1.157979
1.15794
1.157904
1.157871
1.157844
1.157822
1.157807
1.157797
1.157793
1.157793
1.157796
1.157802
1.157809
1.157816
1.157823
1.157829
1.157835
1.157839
1.157841
1.158452
1.158398
1.158349
1.158303
1.15826
1.158217
1.158176
1.158134
1.158091
1.158047
1.158003
1.157959
1.157916
1.157877
1.157841
1.157812
1.15779
1.157774
1.157766
1.157764
1.157767
1.157773
1.157781
1.15779
1.1578
1.157809
1.157817
1.157824
1.157828
1.157831
1.158451
1.158397
1.158347
1.1583
1.158256
1.158212
1.158169
1.158125
1.15808
1.158034
1.157987
1.15794
1.157894
1.157851
1.157813
1.157782
1.157759
1.157744
1.157737
1.157737
1.157742
1.157751
1.157762
1.157774
1.157786
1.157797
1.157806
1.157814
1.157819
1.157822
1.158451
1.158396
1.158345
1.158298
1.158253
1.158208
1.158164
1.158118
1.158072
1.158023
1.157973
1.157923
1.157874
1.157828
1.157788
1.157755
1.157731
1.157717
1.157711
1.157713
1.157721
1.157732
1.157746
1.15776
1.157774
1.157786
1.157797
1.157806
1.157812
1.157815
1.158451
1.158395
1.158344
1.158296
1.15825
1.158205
1.15816
1.158114
1.158065
1.158015
1.157963
1.157911
1.157859
1.157811
1.157769
1.157735
1.157711
1.157697
1.157692
1.157695
1.157705
1.157718
1.157734
1.15775
1.157765
1.157779
1.157791
1.1578
1.157807
1.15781
1.158451
1.158395
1.158344
1.158295
1.158249
1.158204
1.158158
1.158111
1.158062
1.158011
1.157958
1.157904
1.157851
1.157802
1.157759
1.157724
1.157699
1.157685
1.157681
1.157686
1.157696
1.157711
1.157727
1.157744
1.15776
1.157775
1.157787
1.157797
1.157804
1.157808
1.158451
1.158395
1.158344
1.158295
1.158249
1.158204
1.158158
1.158111
1.158062
1.158011
1.157957
1.157904
1.157851
1.157801
1.157758
1.157723
1.157699
1.157685
1.157681
1.157685
1.157696
1.15771
1.157727
1.157744
1.15776
1.157775
1.157787
1.157797
1.157804
1.157807
1.158451
1.158396
1.158344
1.158296
1.15825
1.158205
1.15816
1.158113
1.158065
1.158015
1.157962
1.15791
1.157858
1.15781
1.157768
1.157733
1.157709
1.157695
1.15769
1.157694
1.157703
1.157717
1.157732
1.157748
1.157764
1.157778
1.15779
1.157799
1.157806
1.15781
1.158451
1.158396
1.158345
1.158298
1.158253
1.158208
1.158164
1.158118
1.158071
1.158022
1.157972
1.157922
1.157872
1.157826
1.157785
1.157752
1.157729
1.157714
1.157708
1.15771
1.157718
1.15773
1.157743
1.157758
1.157772
1.157785
1.157796
1.157805
1.157811
1.157814
1.158451
1.158397
1.158347
1.1583
1.158256
1.158213
1.158169
1.158125
1.15808
1.158033
1.157986
1.157938
1.157891
1.157848
1.15781
1.157778
1.157755
1.15774
1.157733
1.157733
1.157738
1.157747
1.157759
1.157771
1.157783
1.157794
1.157804
1.157812
1.157817
1.15782
1.158452
1.158398
1.158349