/*--------------------------------*- C++ -*----------------------------------*\
| =========                 |                                                 |
| \\      /  F ield         | OpenFOAM: The Open Source CFD Toolbox           |
|  \\    /   O peration     | Version:  2506                                  |
|   \\  /    A nd           | Website:  www.openfoam.com                      |
|    \\/     M anipulation  |                                                 |
\*---------------------------------------------------------------------------*/
FoamFile
{
    version     2.0;
    format      ascii;
    arch        "LSB;label=32;scalar=64";
    class       volVectorField;
    location    "500/air";
    object      U;
}
// * * * * * * * * * * * * * * * * * * * * * * * * * * * * * * * * * * * * * //

dimensions      [0 1 -1 0 0 0 0];

internalField   nonuniform List<vector> 
33752
(
(0.006638925 -0.0006117627 -0.002857048)
(0.009740967 -0.003703376 -0.0003416656)
(0.0109812 -0.007319152 -0.0008334107)
(0.01299062 -0.01117136 -0.002022779)
(0.01555569 -0.0146906 -0.003468522)
(0.01872013 -0.01787628 -0.004968413)
(0.02234726 -0.02067948 -0.006327306)
(0.02627623 -0.023062 -0.007496097)
(0.03034994 -0.02500742 -0.008451399)
(0.03443612 -0.02654198 -0.009205114)
(0.03842594 -0.02772499 -0.00977746)
(0.04222222 -0.02863128 -0.01020048)
(0.04575858 -0.02933618 -0.01051986)
(0.04900504 -0.02990694 -0.0107881)
(0.05197921 -0.03040733 -0.01104876)
(0.05472858 -0.030913 -0.011326)
(0.05729873 -0.03150166 -0.01161771)
(0.05972098 -0.03223891 -0.01191265)
(0.06200504 -0.03315867 -0.01219745)
(0.06415414 -0.03425653 -0.01246889)
(0.06617471 -0.03549385 -0.01273264)
(0.06808678 -0.03680588 -0.0130023)
(0.0699261 -0.03810681 -0.01329502)
(0.0717461 -0.03928754 -0.01363085)
(0.07362271 -0.04020461 -0.01403416)
(0.07567124 -0.04065645 -0.01453928)
(0.07808192 -0.04033731 -0.01519971)
(0.08120855 -0.03877292 -0.01611227)
(0.08617441 -0.03529847 -0.01747072)
(0.09615164 -0.02904518 -0.01932889)
(0.00718801 -0.0009446038 -0.003504547)
(0.01038192 -0.005142888 -0.0008938492)
(0.0112381 -0.008523412 -0.001139355)
(0.01308924 -0.01141902 -0.001927157)
(0.01559872 -0.01382369 -0.002981583)
(0.01872188 -0.01579121 -0.004084311)
(0.02235412 -0.0173571 -0.005106961)
(0.02632256 -0.01854357 -0.005983648)
(0.03045923 -0.0193751 -0.006704187)
(0.03461795 -0.01989465 -0.007270457)
(0.03866729 -0.0201573 -0.007697564)
(0.04250473 -0.0202247 -0.008010886)
(0.04605238 -0.02015804 -0.008244008)
(0.04927898 -0.02001206 -0.008437532)
(0.05219928 -0.01984467 -0.008626105)
(0.05485895 -0.01972131 -0.008826985)
(0.05731071 -0.0197116 -0.009041954)
(0.05959392 -0.01987431 -0.009261531)
(0.06173501 -0.02024096 -0.009477716)
(0.06375301 -0.02080919 -0.009687778)
(0.06567215 -0.02154332 -0.009897398)
(0.06752867 -0.02238056 -0.01011753)
(0.06937615 -0.02323527 -0.01036351)
(0.0712902 -0.0239996 -0.01065444)
(0.0733798 -0.02453841 -0.011017)
(0.07581501 -0.02467952 -0.01149359)
(0.07887698 -0.0241971 -0.01215628)
(0.08305304 -0.02280351 -0.01313975)
(0.08966488 -0.02021077 -0.01475672)
(0.1021458 -0.01652773 -0.01732759)
(0.007712863 -0.0008646453 -0.004212237)
(0.01139111 -0.005131694 -0.001925975)
(0.01235411 -0.008323862 -0.002039723)
(0.01422225 -0.01086897 -0.002578831)
(0.01676237 -0.01281066 -0.003325473)
(0.01990056 -0.01422042 -0.004113971)
(0.02353346 -0.0151695 -0.004835801)
(0.02750219 -0.01571316 -0.005452973)
(0.03164138 -0.01590758 -0.005949964)
(0.03579291 -0.01581055 -0.006328141)
(0.03982175 -0.01548399 -0.006597784)
(0.04361277 -0.01499174 -0.006776413)
(0.0470875 -0.01439454 -0.006891655)
(0.05020828 -0.01375171 -0.006974947)
(0.05298624 -0.01312279 -0.00705488)
(0.05546613 -0.01257473 -0.007147916)
(0.05770472 -0.01217405 -0.007257223)
(0.05975558 -0.01197604 -0.007378682)
(0.06166431 -0.01201092 -0.007507476)
(0.06347348 -0.012276 -0.00764368)
(0.06522916 -0.01273699 -0.007792413)
(0.06698799 -0.0133324 -0.007963711)
(0.06882219 -0.01397911 -0.008171185)
(0.07082738 -0.01457536 -0.00843383)
(0.07313712 -0.01500059 -0.008780906)
(0.07595531 -0.01511832 -0.009262115)
(0.0796069 -0.01477509 -0.009963841)
(0.08461824 -0.01381976 -0.01104651)
(0.09231556 -0.01218064 -0.01286297)
(0.1060017 -0.0101343 -0.01567807)
(0.008144321 -0.0006838848 -0.004731054)
(0.01242251 -0.004373795 -0.00254573)
(0.01368217 -0.007346466 -0.002696865)
(0.01578926 -0.009690506 -0.003174386)
(0.01853488 -0.01141144 -0.003772467)
(0.0218087 -0.01255407 -0.004358666)
(0.02551733 -0.01318009 -0.004872371)
(0.02951969 -0.01335632 -0.005290677)
(0.03365622 -0.01315017 -0.005608742)
(0.03777449 -0.0126328 -0.005828741)
(0.04173433 -0.01187637 -0.005959428)
(0.04542238 -0.01095284 -0.00601702)
(0.04875632 -0.00993441 -0.006022954)
(0.05169856 -0.008889878 -0.006004241)
(0.05425694 -0.007890414 -0.005984939)
(0.0564772 -0.007008986 -0.005981788)
(0.0584239 -0.006313738 -0.006001839)
(0.06016617 -0.005858849 -0.006045969)
(0.06177313 -0.005671451 -0.00611346)
(0.0633126 -0.00574737 -0.006205277)
(0.06485453 -0.006051637 -0.006325642)
(0.06647512 -0.006523806 -0.006481693)
(0.0682624 -0.007084119 -0.006684539)
(0.07032616 -0.007639473 -0.006951537)
(0.07281117 -0.008083778 -0.007313006)
(0.07593144 -0.008313533 -0.007821093)
(0.0800176 -0.00822897 -0.008567735)
(0.08557597 -0.007762102 -0.009721462)
(0.09386623 -0.006937951 -0.01164374)
(0.1080347 -0.006005771 -0.0145095)
(0.008533731 -0.0005593093 -0.005140945)
(0.01337889 -0.003560587 -0.002922872)
(0.01498549 -0.006154765 -0.003155144)
(0.01745148 -0.008247667 -0.003654184)
(0.02052189 -0.009777555 -0.00419627)
(0.02404479 -0.01074 -0.004672848)
(0.02792506 -0.01116796 -0.005048626)
(0.0320284 -0.01111316 -0.005320862)
(0.03620524 -0.0106418 -0.005493727)
(0.04030576 -0.009827432 -0.005574883)
(0.04419416 -0.008748726 -0.005575925)
(0.04775649 -0.00748831 -0.005512613)
(0.05091268 -0.00613009 -0.005406379)
(0.0536254 -0.004760098 -0.005281147)
(0.05590365 -0.003462767 -0.005160893)
(0.05779657 -0.00232018 -0.00506333)
(0.05938424 -0.001396091 -0.004997737)
(0.06075351 -0.0007498271 -0.004971985)
(0.0619988 -0.0004125741 -0.004990893)
(0.0632153 -0.000379906 -0.005056687)
(0.06449741 -0.0006154253 -0.005171048)
(0.06593991 -0.001056856 -0.005337153)
(0.06764209 -0.001624151 -0.005561448)
(0.06972191 -0.002227103 -0.00585701)
(0.07232303 -0.002773488 -0.006251802)
(0.0756541 -0.0031814 -0.006797738)
(0.08003011 -0.003387788 -0.007586967)
(0.08591293 -0.003369917 -0.008787068)
(0.0944768 -0.003184803 -0.01075482)
(0.1087141 -0.003009021 -0.01359543)
(0.008992845 -0.0004874805 -0.005498482)
(0.0142906 -0.002793273 -0.003167462)
(0.01621711 -0.004927137 -0.003460628)
(0.01906125 -0.006709946 -0.004002625)
(0.02250544 -0.008025512 -0.004538865)
(0.02634934 -0.008824072 -0.004962529)
(0.0304784 -0.009101781 -0.005252819)
(0.03475605 -0.008888139 -0.005419011)
(0.03903184 -0.008235218 -0.005474553)
(0.04315838 -0.007211614 -0.005433019)
(0.04699983 -0.005897618 -0.005309633)
(0.05044258 -0.004382857 -0.005123355)
(0.05340718 -0.00276576 -0.004896683)
(0.05585998 -0.001143116 -0.004654297)
(0.05782113 0.0003965531 -0.004418614)
(0.05933886 0.001751339 -0.004216724)
(0.06050417 0.002828921 -0.004067762)
(0.0614378 0.003579608 -0.003984041)
(0.06226466 0.003982244 -0.003970781)
(0.06310847 0.004045966 -0.004028362)
(0.06408778 0.003810841 -0.004154943)
(0.06531444 0.003340983 -0.004348739)
(0.06689749 0.002715907 -0.004611753)
(0.06894788 0.002020527 -0.004953853)
(0.07161093 0.001324488 -0.005396382)
(0.07508446 0.0007066975 -0.005990517)
(0.07964713 0.0002132553 -0.006823832)
(0.08570922 -0.0001526496 -0.00805734)
(0.09436445 -0.0004503676 -0.01003839)
(0.1084698 -0.0007854642 -0.01281763)
(0.009554661 -0.0004385882 -0.005829003)
(0.01519356 -0.002113579 -0.003323203)
(0.01738381 -0.003778015 -0.003646285)
(0.02057441 -0.005222631 -0.004228378)
(0.02439271 -0.006298575 -0.004778099)
(0.02858625 -0.006923031 -0.005179767)
(0.03301378 -0.007062692 -0.005416256)
(0.03752302 -0.006722168 -0.005503652)
(0.04195568 -0.005936372 -0.005461357)
(0.04615847 -0.004763514 -0.005307637)
(0.04999064 -0.003280977 -0.005061839)
(0.05333441 -0.00158381 -0.004746122)
(0.05611861 0.000231051 -0.00438292)
(0.05830132 0.002046193 -0.004004316)
(0.05989447 0.00373633 -0.003647308)
(0.06098115 0.005206978 -0.003344832)
(0.06167792 0.006373412 -0.003121407)
(0.06212969 0.007176253 -0.002992079)
(0.06249357 0.007591084 -0.002962558)
(0.06292549 0.007630453 -0.003030936)
(0.06356911 0.007339208 -0.003190032)
(0.06455203 0.006785942 -0.00343174)
(0.06598856 0.006052258 -0.003751181)
(0.0679895 0.005222096 -0.004152361)
(0.07068304 0.004375853 -0.004654195)
(0.07424287 0.003570398 -0.005302237)
(0.07891764 0.002839255 -0.006178267)
(0.08506748 0.002179 -0.007436187)
(0.09371129 0.001538978 -0.009412058)
(0.1075938 0.0008687377 -0.01211069)
(0.01018933 -0.0003941462 -0.006138578)
(0.01609437 -0.00153712 -0.003422846)
(0.01849421 -0.002770332 -0.003748475)
(0.0219848 -0.003881902 -0.004358508)
(0.02615085 -0.004709387 -0.004924332)
(0.03069394 -0.005152473 -0.005316327)
(0.03544129 -0.005156972 -0.005514985)
(0.04021938 -0.004707551 -0.005538359)
(0.04485364 -0.003821922 -0.005408469)
(0.04917758 -0.002546649 -0.005146346)
(0.05303864 -0.0009532067 -0.004773923)
(0.05632334 0.0008716115 -0.00431259)
(0.05892542 0.002804847 -0.003798341)
(0.06081636 0.004727738 -0.003276686)
(0.06202905 0.006519152 -0.002792821)
(0.06265595 0.008063848 -0.002386819)
(0.06284233 0.00926852 -0.002090081)
(0.06276865 0.01007191 -0.001922463)
(0.06263057 0.01045234 -0.001890833)
(0.06261861 0.01042739 -0.00198957)
(0.06290257 0.01004827 -0.002204463)
(0.06362433 0.009389288 -0.002518155)
(0.06490084 0.008535945 -0.002917089)
(0.06683533 0.007573382 -0.00339741)
(0.06953814 0.00657727 -0.003972602)
(0.07315653 0.005602648 -0.00468236)
(0.07790492 0.004678516 -0.005603088)
(0.08409498 0.003799992 -0.006881476)
(0.09267771 0.002926738 -0.008843388)
(0.1063044 0.002047674 -0.01145395)
(0.01085522 -0.0003486433 -0.006426149)
(0.01697886 -0.001066557 -0.00348872)
(0.01954548 -0.001930421 -0.003796785)
(0.02328933 -0.00273916 -0.004420848)
(0.02776689 -0.0033309 -0.004997602)
(0.0326407 -0.003599577 -0.005381755)
(0.03770839 -0.003479942 -0.005548074)
(0.04277212 -0.002942478 -0.005513019)
(0.04763595 -0.00199085 -0.005298421)
(0.05211501 -0.0006599242 -0.004925133)
(0.05605075 0.0009906022 -0.004413689)
(0.05928131 0.002861689 -0.003796523)
(0.0617183 0.004847589 -0.003122142)
(0.0633268 0.006819729 -0.002444737)
(0.06414557 0.008644268 -0.001820187)
(0.06428919 0.01019941 -0.00130022)
(0.06393543 0.0113893 -0.0009283087)
(0.06330596 0.0121505 -0.0007282439)
(0.0626394 0.01246375 -0.0007084369)
(0.0621641 0.01235237 -0.0008586067)
(0.06207668 0.01187425 -0.001153776)
(0.06253213 0.01111088 -0.001566282)
(0.06364669 0.01015017 -0.002069614)
(0.06551209 0.009078262 -0.00265047)
(0.06821776 0.007968776 -0.003315145)
(0.07188295 0.006874648 -0.00409795)
(0.07668674 0.005822194 -0.005069565)
(0.08289568 0.004807294 -0.006370446)
(0.09140008 0.003798906 -0.008316954)
(0.1047632 0.002814008 -0.01083992)
(0.01151365 -0.0003009103 -0.006688063)
(0.01782149 -0.0006982375 -0.003534649)
(0.02052215 -0.001264198 -0.003812353)
(0.02447757 -0.001816302 -0.004438437)
(0.02922693 -0.002202784 -0.005018516)
(0.03440204 -0.002320996 -0.005391865)
(0.03977473 -0.002102526 -0.005525706)
(0.04512324 -0.001510159 -0.005432745)
(0.05022882 -0.0005377084 -0.005131983)
(0.05489 0.0007932821 -0.004640532)
(0.05890338 0.00242205 -0.003983262)
(0.06211375 0.004272047 -0.003203304)
(0.0644071 0.006231612 -0.002355099)
(0.06574192 0.008170164 -0.001504765)
(0.06616641 0.009953706 -0.0007233985)
(0.06582018 0.01145697 -7.556057e-05)
(0.06491741 0.01257701 0.0003681642)
(0.06372144 0.01325831 0.0005926922)
(0.06251729 0.0134876 0.0005864214)
(0.06157239 0.01329267 0.0003661198)
(0.06111338 0.01273409 -2.853482e-05)
(0.06131023 0.01189293 -0.0005662588)
(0.06227196 0.01086365 -0.001198849)
(0.06407591 0.00973169 -0.001900955)
(0.06678848 0.00856732 -0.002671077)
(0.07049961 0.007420297 -0.00353797)
(0.07535406 0.006315023 -0.004567782)
(0.08157664 0.005248398 -0.005895437)
(0.0900044 0.004196881 -0.007829585)
(0.1031172 0.003193519 -0.01027034)
(0.0121288 -0.0002506461 -0.00691917)
(0.01859143 -0.0004239949 -0.003568467)
(0.02140023 -0.0007645816 -0.003809735)
(0.02552991 -0.001113919 -0.004429153)
(0.03051032 -0.001337632 -0.005005632)
(0.03595005 -0.001343077 -0.005364124)
(0.0415997 -0.001065327 -0.005463832)
(0.04721589 -0.0004652077 -0.005312047)
(0.05256105 0.0004704521 -0.004922113)
(0.05739824 0.001724373 -0.0043109)
(0.0615141 0.003256731 -0.003508088)
(0.06472324 0.004991496 -0.002558253)
(0.06689281 0.006825499 -0.001524293)
(0.06797497 0.0086362 -0.0004875141)
(0.0680243 0.01028655 0.0004558784)
(0.06720391 0.01165687 0.001230977)
(0.06576533 0.01265807 0.001761109)
(0.06401743 0.01323778 0.002007747)
(0.06229155 0.01338368 0.001963264)
(0.06089738 0.01312579 0.001653603)
(0.06008628 0.01252827 0.00113029)
(0.06003368 0.0116737 0.0004514146)
(0.06085569 0.01064592 -0.0003238974)
(0.06261233 0.009527389 -0.00116207)
(0.06534051 0.008386618 -0.002049483)
(0.06910166 0.007268454 -0.003008837)
(0.07400808 0.006194672 -0.004102361)
(0.08024732 0.00516316 -0.005461309)
(0.08861046 0.004155851 -0.007388082)
(0.1015009 0.003212436 -0.009755887)
(0.01266785 -0.000197847 -0.007113631)
(0.01925688 -0.0002320166 -0.003594087)
(0.02215138 -0.0004147748 -0.003798641)
(0.02642049 -0.0006161092 -0.004406566)
(0.03158992 -0.0007247163 -0.004974762)
(0.03725128 -0.0006631164 -0.005315813)
(0.04313893 -0.0003751148 -0.005381047)
(0.04899287 0.0001758896 -0.005171522)
(0.05455142 0.001004437 -0.004696562)
(0.05956075 0.002103935 -0.003972772)
(0.0637814 0.003440243 -0.003028116)
(0.06700279 0.004950779 -0.001909306)
(0.06907359 0.006547302 -0.0006879935)
(0.06993318 0.008115289 0.000530383)
(0.0696438 0.00953435 0.001646013)
(0.06839021 0.01070555 0.002550477)
(0.06645699 0.01154706 0.003159111)
(0.0641986 0.01201078 0.003422142)
(0.06199316 0.0120879 0.00333168)
(0.06019037 0.01180805 0.002923372)
(0.05906678 0.0112313 0.002265305)
(0.05880649 0.01043394 0.001436589)
(0.05950907 0.009496464 0.0005084623)
(0.06122945 0.008485003 -0.0004680912)
(0.06398236 0.007460464 -0.001476051)
(0.06779672 0.006462252 -0.00252987)
(0.0727565 0.005508724 -0.003688653)
(0.07901725 0.004598175 -0.005081232)
(0.08733231 0.003717145 -0.007005929)
(0.1000378 0.002904361 -0.009312755)
(0.01310238 -0.000142747 -0.007265729)
(0.01978824 -0.0001074162 -0.003612955)
(0.02274701 -0.0001902507 -0.003785407)
(0.02712132 -0.0002932623 -0.004380749)
(0.03243547 -0.0003328417 -0.004939006)
(0.03826945 -0.0002506222 -0.005262782)
(0.04434632 -3.229356e-06 -0.005296643)
(0.05039223 0.0004385537 -0.005036407)
(0.0561295 0.001089648 -0.004488703)
(0.06128658 0.001946679 -0.003666552)
(0.06560174 0.002985392 -0.002595627)
(0.068843 0.00415969 -0.001324337)
(0.07084018 0.005401268 6.634692e-05)
(0.0715194 0.006612389 0.001456097)
(0.07094964 0.007709497 0.002724617)
(0.06933198 0.008609617 0.003747957)
(0.06698161 0.009247696 0.004427466)
(0.06429228 0.009585761 0.004703767)
(0.06168358 0.009617634 0.00456773)
(0.05954055 0.009368578 0.004063699)
(0.05816132 0.008888166 0.0032768)
(0.05773543 0.008238451 0.002305196)
(0.05835493 0.007482544 0.001236296)
(0.06004759 0.006677721 0.0001317024)
(0.06283025 0.005864115 -0.0009885731)
(0.06669617 0.005076873 -0.002129902)
(0.07170606 0.004328998 -0.003348916)
(0.07799065 0.003618815 -0.004773793)
(0.08627477 0.002936849 -0.006700368)
(0.09883944 0.00231632 -0.008960593)
(0.01341007 -8.571548e-05 -0.00736956)
(0.0201606 -3.313251e-05 -0.003624743)
(0.02316206 -6.028128e-05 -0.003773917)
(0.02760665 -0.0001044037 -0.004358959)
(0.03301855 -0.0001131349 -0.004908577)
(0.03897066 -5.020799e-05 -0.005218529)
(0.04517861 0.0001117425 -0.005228524)
(0.05135939 0.0003919896 -0.004930841)
(0.05722563 0.000801254 -0.004329285)
(0.06249099 0.001338507 -0.003433345)
(0.06687833 0.001990001 -0.002266537)
(0.07014019 0.002727835 -0.0008783902)
(0.07208719 0.00350747 0.0006361192)
(0.07264023 0.004269251 0.002162186)
(0.07187048 0.004959262 0.003552428)
(0.06999016 0.005524161 0.004670762)
(0.06733724 0.00592219 0.005407402)
(0.06433479 0.006128914 0.005694887)
(0.06143362 0.006140624 0.005522492)
(0.05904557 0.005973951 0.004941556)
(0.05748475 0.005661547 0.004050885)
(0.05694371 0.005243603 0.002964437)
(0.05750798 0.004760566 0.001781988)
(0.05919112 0.004248394 0.0005671598)
(0.06199545 0.003733439 -0.0006393168)
(0.06590334 0.003237108 -0.001848485)
(0.07095278 0.002767399 -0.003114759)
(0.07725816 0.002322387 -0.004565458)
(0.08552718 0.001896354 -0.006495267)
(0.09800248 0.001512003 -0.008721611)
(0.01357189 -2.745949e-05 -0.007423624)
(0.02035699 1.016629e-05 -0.00363104)
(0.02337855 1.104643e-05 -0.00376713)
(0.02785716 5.243523e-07 -0.004346056)
(0.03331703 -2.546786e-06 -0.004890584)
(0.03932773 1.409269e-05 -0.005192754)
(0.04560177 5.974278e-05 -0.005189742)
(0.05185214 0.0001417888 -0.004872331)
(0.05778545 0.0002643939 -0.004242076)
(0.0631084 0.0004284461 -0.003306349)
(0.06753555 0.0006307363 -0.002087311)
(0.07081131 0.0008632249 -0.0006338439)
(0.07273525 0.001111584 0.0009514776)
(0.07322531 0.001357611 0.002551339)
(0.07235299 0.001583009 0.004010139)
(0.07033685 0.001770082 0.005183443)
(0.06752649 0.00190462 0.005954032)
(0.06436047 0.001978113 0.006249178)
(0.06130643 0.001988912 0.006056908)
(0.05879071 0.001942387 0.005432292)
(0.05713597 0.001849138 0.004482231)
(0.05653624 0.001722391 0.00332988)
(0.05707312 0.001575068 0.002082909)
(0.05875392 0.00141859 0.0008093665)
(0.06156938 0.00126154 -0.0004455736)
(0.06549976 0.001110099 -0.001692916)
(0.07057007 0.0009661692 -0.00298583)
(0.0768865 0.0008280047 -0.004451434)
(0.08514943 0.0006926285 -0.006384436)
(0.09758506 0.0005668592 -0.008602286)
(0.01358054 3.10815e-05 -0.007425107)
(0.02036815 4.345945e-05 -0.003630997)
(0.02338677 6.316288e-05 -0.003765965)
(0.02786236 7.762329e-05 -0.004344309)
(0.03331891 7.137867e-05 -0.004888585)
(0.03932622 3.203549e-05 -0.005190678)
(0.04559729 -4.974522e-05 -0.005187537)
(0.05184551 -0.0001802778 -0.004870071)
(0.0577778 -0.0003619818 -0.004239853)
(0.06310113 -0.0005929509 -0.003304327)
(0.06753026 -0.0008664802 -0.002085698)
(0.07080958 -0.001170544 -0.0006329157)
(0.07273857 -0.001486573 0.0009514271)
(0.07323488 -0.001791917 0.002550161)
(0.07236962 -0.002064109 0.004007838)
(0.07036075 -0.002281967 0.005180215)
(0.06755724 -0.002428742 0.005950272)
(0.06439705 -0.002494649 0.006245419)
(0.06134734 -0.00247834 0.006053693)
(0.05883418 -0.002387154 0.005430057)
(0.05718025 -0.002235147 0.004481206)
(0.05657971 -0.002039965 0.003330085)
(0.05711455 -0.001819261 0.002084173)
(0.05879265 -0.001588816 0.0008113405)
(0.06160514 -0.001359688 -0.0004430555)
(0.06553232 -0.001140643 -0.001689948)
(0.07059916 -0.0009364733 -0.002982477)
(0.07691197 -0.0007485902 -0.00444774)
(0.08517097 -0.0005773784 -0.006380343)
(0.09760098 -0.0004343649 -0.008598675)
(0.01343678 8.905914e-05 -0.007374169)
(0.02019457 8.786212e-05 -0.003624567)
(0.02318712 0.0001364765 -0.003770411)
(0.0276225 0.0001849924 -0.00435369)
(0.03302423 0.0001843442 -0.00490255)
(0.03896592 9.806844e-05 -0.005212241)
(0.0451648 -0.0001011649 -0.005221986)
(0.05133901 -0.0004319787 -0.004924189)
(0.05720222 -0.0009027543 -0.004322803)
(0.06246896 -0.001509383 -0.003427415)
(0.06686248 -0.002234297 -0.002261718)
(0.07013534 -0.003045334 -0.0008752842)
(0.07209771 -0.003893493 0.0006368584)
(0.07266961 -0.004714448 0.002160131)
(0.07192083 -0.005450214 0.003547679)
(0.07006188 -0.006044111 0.004663901)
(0.06742889 -0.006452134 0.00539943)
(0.06444325 -0.006648948 0.00568708)
(0.06155451 -0.006631461 0.005516138)
(0.05917386 -0.006418491 0.004937655)
(0.05761537 -0.006046195 0.004049967)
(0.05707208 -0.005559157 0.002966514)
(0.05763031 -0.005002582 0.001786623)
(0.05930562 -0.004417247 0.0005729013)
(0.06210154 -0.003830821 -0.0006325508)
(0.0660002 -0.003267336 -0.001840684)
(0.07103946 -0.002737902 -0.003105894)
(0.07733426 -0.002243853 -0.004555571)
(0.08559297 -0.001782742 -0.006484521)
(0.09806106 -0.001381073 -0.008717351)
(0.01314935 0.000145672 -0.007272919)
(0.01984625 0.0001640534 -0.003612047)
(0.02279006 0.0002703308 -0.003779331)
(0.02714858 0.0003788437 -0.004371793)
(0.03244511 0.0004090544 -0.00492873)
(0.03826098 0.0003021353 -0.005252131)
(0.04432177 1.470654e-05 -0.005285938)
(0.05035569 -0.0004814828 -0.005025622)
(0.05608756 -0.001199194 -0.004478289)
(0.06124688 -0.002131045 -0.003657227)
(0.06557267 -0.003248341 -0.002588195)
(0.06883281 -0.004500132 -0.001319578)
(0.07085637 -0.005813167 6.791278e-05)
(0.07156783 -0.007084718 0.001453296)
(0.07103366 -0.008226971 0.002717983)
(0.06945207 -0.009153787 0.003738535)
(0.06713512 -0.009798296 0.004416797)
(0.06447384 -0.01012216 0.004693681)
(0.0618858 -0.0101204 0.004559995)
(0.05975506 -0.009820917 0.004059665)
(0.05837971 -0.009277032 0.003277142)
(0.05794994 -0.008555175 0.002309847)
(0.05855863 -0.007723016 0.001244181)
(0.06023778 -0.006842324 0.0001356289)
(0.06300693 -0.005955331 -0.0009853056)
(0.06685747 -0.005100098 -0.0021257)
(0.07184994 -0.004292707 -0.003343031)
(0.0781162 -0.003534818 -0.004765823)
(0.08638244 -0.002820707 -0.00668973)
(0.09893225 -0.002188286 -0.008951853)
(0.01273448 0.0002000988 -0.007126186)
(0.01934201 0.0002918194 -0.003594208)
(0.02221489 0.0005011154 -0.003790324)
(0.02646062 0.0007098107 -0.004393638)
(0.03160363 0.0008092074 -0.004959747)
(0.03723757 0.000720939 -0.005300208)
(0.04310065 0.000388555 -0.005365708)
(0.04893699 -0.0002230907 -0.005156668)
(0.05448636 -0.001125387 -0.004682481)
(0.05949878 -0.002307926 -0.003960578)
(0.06373508 -0.003730456 -0.003018945)
(0.06698444 -0.005324787 -0.001904157)
(0.06909408 -0.006996775 -0.0006876142)
(0.07000082 -0.008626747 0.0005254261)
(0.06976311 -0.01008959 0.00163642)
(0.06856132 -0.01128364 0.00253777)
(0.06667561 -0.01212596 0.003145352)
(0.06445667 -0.01256896 0.003409638)
(0.06228 -0.01260592 0.003322564)
(0.06049415 -0.01226975 0.002919211)
(0.05937582 -0.01162456 0.002266865)
(0.05911026 -0.0107509 0.001443798)
(0.05979839 -0.009733247 0.0005203078)
(0.0614998 -0.008640792 -0.0004584008)
(0.06423235 -0.007539498 -0.001465821)
(0.06802346 -0.006471901 -0.00251766)
(0.07295702 -0.005459053 -0.003673654)
(0.0791894 -0.004502568 -0.005062734)
(0.08747384 -0.003593628 -0.006982466)
(0.1001457 -0.00277829 -0.009287316)
(0.01221914 0.00025185 -0.006937121)
(0.018707 0.0004886057 -0.003568882)
(0.02148706 0.000860068 -0.003798484)
(0.02558468 0.00121952 -0.004411411)
(0.03052811 0.001434625 -0.004984825)
(0.03592881 0.001411034 -0.005342498)
(0.04154313 0.001083336 -0.00544283)
(0.04713305 0.0004141403 -0.005292663)
(0.05246632 -0.0006059009 -0.004904623)
(0.05730682 -0.001954141 -0.004296402)
(0.06144433 -0.00358299 -0.003498339)
(0.06469205 -0.005409974 -0.002554378)
(0.06691524 -0.007324959 -0.001526849)
(0.06806186 -0.009199257 -0.0004964116)
(0.06818114 -0.01089171 0.0004416269)
(0.06742999 -0.01227965 0.001213534)
(0.06605404 -0.0132739 0.001743107)
(0.06435733 -0.01382399 0.001991912)
(0.06266811 -0.01392095 0.00195211)
(0.06129498 -0.01359894 0.001648864)
(0.06049 -0.01292666 0.001132703)
(0.06043047 -0.01199098 0.0004609374)
(0.06123494 -0.0108796 -0.0003077477)
(0.06296709 -0.009677731 -0.001140806)
(0.0656664 -0.008459014 -0.00202375)
(0.06939485 -0.007271305 -0.002978834)
(0.07426481 -0.006138885 -0.004067834)
(0.08046361 -0.005062813 -0.005421324)
(0.08877804 -0.004029634 -0.007339882)
(0.1015984 -0.003086306 -0.009698178)
(0.01163224 0.000300843 -0.006712739)
(0.01797208 0.0007689042 -0.003534995)
(0.02063619 0.001371586 -0.003797232)
(0.02454948 0.001937964 -0.004414413)
(0.02924885 0.002317218 -0.004990124)
(0.03437026 0.002403911 -0.005362286)
(0.0396937 0.002128544 -0.005497407)
(0.04500511 0.001456281 -0.005407734)
(0.0500924 0.0003860805 -0.00511143)
(0.0547585 -0.001052078 -0.004624624)
(0.05880115 -0.002792019 -0.003974603)
(0.06206304 -0.004745507 -0.003203111)
(0.06442765 -0.00679291 -0.002363598)
(0.06584779 -0.008796937 -0.00152109)
(0.06636365 -0.01061922 -0.0007455143)
(0.06610677 -0.01213281 -9.999195e-05)
(0.06528327 -0.01323635 0.0003438107)
(0.06415057 -0.0138768 0.0005715701)
(0.06299043 -0.014046 0.0005716979)
(0.06206967 -0.01377721 0.0003598397)
(0.06161644 -0.01313613 -2.590419e-05)
(0.0618031 -0.01220875 -0.0005549054)
(0.06274224 -0.0110932 -0.001179534)
(0.0645148 -0.009877972 -0.001874711)
(0.06718989 -0.008636594 -0.002638683)
(0.07085877 -0.007421334 -0.003499766)
(0.07566634 -0.006258883 -0.004523467)
(0.08183669 -0.005148914 -0.005843675)
(0.09020056 -0.004071626 -0.007766427)
(0.1032216 -0.0030656 -0.01019276)
(0.01100717 0.0003471743 -0.006459152)
(0.01717019 0.001144124 -0.003488564)
(0.01969199 0.002052142 -0.00377636)
(0.02338197 0.002881024 -0.004388272)
(0.0277934 0.003468282 -0.004958631)
(0.03259453 0.003702961 -0.005341082)
(0.0375948 0.003518108 -0.005509701)
(0.04260765 0.002887089 -0.005480557)
(0.04744597 0.00182105 -0.005274778)
(0.05193145 0.0003639894 -0.004911479)
(0.05590311 -0.001411893 -0.004409804)
(0.0592018 -0.003399188 -0.003804136)
(0.06173214 -0.005481227 -0.003141383)
(0.06345109 -0.007520616 -0.002473847)
(0.06438703 -0.009379409 -0.001855729)
(0.06464323 -0.01093502 -0.001337868)
(0.06438743 -0.01209481 -0.000963731)
(0.06383398 -0.01280078 -0.000757485)
(0.06321815 -0.01304048 -0.0007284987)
(0.06276837 -0.01284398 -0.0008678858)
(0.06268392 -0.01227523 -0.001151969)
(0.06312382 -0.01142049 -0.001553961)
(0.06420875 -0.01037125 -0.002047821)
(0.06603448 -0.009216267 -0.00262035)
(0.0686935 -0.008031329 -0.003277591)
(0.07230669 -0.006871157 -0.004053318)
(0.07705336 -0.005763797 -0.005017423)
(0.08319894 -0.004707262 -0.006309053)
(0.0916256 -0.003673291 -0.008241032)
(0.1048778 -0.0026849 -0.0107457)
(0.01038008 0.0003911484 -0.006181767)
(0.01633346 0.001621403 -0.0034216)
(0.0186803 0.002907616 -0.003720766)
(0.02210366 0.004047494 -0.004313896)
(0.02618343 0.004875029 -0.004870195)
(0.03062936 0.005282185 -0.005259577)
(0.03528534 0.005211758 -0.005462328)
(0.03999413 0.004652584 -0.005495797)
(0.04459323 0.003631943 -0.005380753)
(0.0489227 0.002209635 -0.005136447)
(0.05283498 0.0004701913 -0.004781468)
(0.05620815 -0.001484364 -0.004336211)
(0.05892741 -0.003518104 -0.003836683)
(0.06095932 -0.005509121 -0.003327087)
(0.06231999 -0.007328611 -0.002850114)
(0.06308662 -0.008861359 -0.002444696)
(0.06339144 -0.01001936 -0.002142488)
(0.0634065 -0.01075004 -0.001964606)
(0.06332437 -0.01104099 -0.001919758)
(0.06333702 -0.01091827 -0.002004141)
(0.06361865 -0.01043977 -0.00220501)
(0.0643169 -0.009684618 -0.002505875)
(0.06555446 -0.00874131 -0.002893561)
(0.06743943 -0.007696823 -0.003364129)
(0.0700856 -0.006627995 -0.003930668)
(0.07364208 -0.005590788 -0.004632191)
(0.07832345 -0.004615245 -0.005544119)
(0.0844401 -0.003698029 -0.006811395)
(0.09293195 -0.002801098 -0.008752695)
(0.1064275 -0.001917171 -0.01134303)
(0.009789055 0.0004335702 -0.005884414)
(0.0154892 0.002202023 -0.003320278)
(0.0176195 0.003929712 -0.003608571)
(0.02072801 0.0054134 -0.004166747)
(0.02443521 0.006496578 -0.004701835)
(0.02850017 0.007083906 -0.005099613)
(0.03280585 0.007138124 -0.005343365)
(0.03722254 0.006669671 -0.005447912)
(0.0416084 0.005726759 -0.005430083)
(0.04581818 0.004384215 -0.005304932)
(0.04971231 0.002737504 -0.005088636)
(0.05316959 0.0008958561 -0.00479942)
(0.05611046 -0.001032103 -0.004455765)
(0.0584655 -0.002906781 -0.004090722)
(0.06024323 -0.00461497 -0.003739809)
(0.06150081 -0.00605847 -0.003434726)
(0.06233829 -0.007159004 -0.003200425)
(0.06289069 -0.007869156 -0.003054465)
(0.06331314 -0.00817709 -0.003005496)
(0.06376519 -0.008105705 -0.003054205)
(0.0643975 -0.007707204 -0.003195091)
(0.06534567 -0.007054551 -0.003420881)
(0.06673142 -0.006231464 -0.003726815)
(0.06867134 -0.005322562 -0.00411658)
(0.0712975 -0.004408365 -0.004608448)
(0.07478542 -0.003545633 -0.005247122)
(0.07938362 -0.0027681 -0.006113276)
(0.08545021 -0.002073203 -0.007359076)
(0.09399305 -0.001412114 -0.009316211)
(0.1077344 -0.0007357584 -0.01199099)
(0.009274243 0.0004776863 -0.005568458)
(0.01465477 0.002878803 -0.003162344)
(0.01651665 0.005087644 -0.003409325)
(0.01926253 0.006923443 -0.003916657)
(0.02256533 0.008256149 -0.004430302)
(0.02624149 0.009017854 -0.004848436)
(0.03021127 0.009199306 -0.005151969)
(0.03436945 0.008839382 -0.005347405)
(0.03858604 0.008007788 -0.005442909)
(0.04272307 0.006794131 -0.005446524)
(0.04664406 0.00529869 -0.005368409)
(0.05022842 0.003629612 -0.005223208)
(0.05338277 0.00189947 -0.005029043)
(0.05606133 0.0002080271 -0.004803127)
(0.05824645 -0.001338689 -0.004570857)
(0.05996463 -0.002638983 -0.004358634)
(0.06129228 -0.003624198 -0.004189044)
(0.0623365 -0.004260541 -0.004078018)
(0.06322042 -0.004539347 -0.004035486)
(0.06407486 -0.00448145 -0.004065349)
(0.0650291 -0.004134314 -0.004167733)
(0.06620597 -0.003565562 -0.004341358)
(0.06772381 -0.002855433 -0.004587914)
(0.0697002 -0.002088214 -0.004916507)
(0.07228476 -0.001331655 -0.005347487)
(0.07567697 -0.0006637423 -0.005930905)
(0.08015481 -0.0001302097 -0.006753106)
(0.08612582 0.0002656518 -0.007973252)
(0.09467154 0.0005821922 -0.009934316)
(0.1086253 0.0009224102 -0.01268767)
(0.008870845 0.0005356448 -0.005230024)
(0.01382907 0.003629133 -0.002915359)
(0.0153683 0.006312006 -0.00308487)
(0.0177179 0.008473672 -0.003533096)
(0.02061053 0.01003338 -0.004040136)
(0.02391881 0.01096044 -0.004510191)
(0.02759706 0.01128335 -0.004910444)
(0.03155273 0.0110674 -0.005232249)
(0.03566058 0.01040229 -0.005469926)
(0.03977913 0.009385823 -0.005621315)
(0.04376935 0.008118655 -0.005690576)
(0.04750685 0.006700837 -0.005687597)
(0.05089539 0.005232167 -0.00562786)
(0.05387397 0.003810485 -0.00552956)