/*--------------------------------*- C++ -*----------------------------------*\
| =========                 |                                                 |
| \\      /  F ield         | OpenFOAM: The Open Source CFD Toolbox           |
|  \\    /   O peration     | Version:  2506                                  |
|   \\  /    A nd           | Website:  www.openfoam.com                      |
|    \\/     M anipulation  |                                                 |
\*---------------------------------------------------------------------------*/
FoamFile
{
    version     2.0;
    format      ascii;
    arch        "LSB;label=32;scalar=64";
    class       volScalarField;
    location    "200/airRegion";
    object      alphat;
}
// * * * * * * * * * * * * * * * * * * * * * * * * * * * * * * * * * * * * * //

dimensions      [1 -1 -1 0 0 0 0];

internalField   nonuniform List<scalar> 
85779
(
0.1066851
0.107121
0.1068928
0.1066226
0.1063104
0.1057177
0.1040732
0.09869187
0.08428248
0.0787993
0.07740822
0.07860451
0.08204536
0.08729664
0.09310282
0.09730345
0.09709407
0.0899656
0.08031033
0.07379773
0.07325984
0.07985233
0.09752478
0.1036592
0.105335
0.1056876
0.1052196
0.1022657
0.08605959
0.02337728
0.1068067
0.1073871
0.1069527
0.1063269
0.1055595
0.1042182
0.1009413
0.09270275
0.08476482
0.08061651
0.07927844
0.08018636
0.08321793
0.08799334
0.09332595
0.09718304
0.0969198
0.09003985
0.08065088
0.07435932
0.07380921
0.07904976
0.08954692
0.09957618
0.1028182
0.1034762
0.1025479
0.09807057
0.07987625
0.02195882
0.1066015
0.1068706
0.106181
0.1052966
0.1042213
0.1023614
0.09804007
0.08967712
0.08476618
0.08199811
0.08101345
0.08179896
0.08441423
0.08855172
0.09314947
0.09639965
0.09593135
0.08928135
0.08013797
0.07388896
0.07294485
0.07690502
0.08491212
0.09639107
0.1003671
0.1011972
0.100328
0.09619286
0.07959727
0.02219828
0.1065488
0.106597
0.1057054
0.1046298
0.1032962
0.1008321
0.09513767
0.08752679
0.08403673
0.08224534
0.08176883
0.08267582
0.08506311
0.08865831
0.09251508
0.0950682
0.09427038
0.08770358
0.07861739
0.07225847
0.07094161
0.07412885
0.08138088
0.09452853
0.09891488
0.09990348
0.09927792
0.09576376
0.08051672
0.02239469
0.1065668
0.1065159
0.1055053
0.1043005
0.1027526
0.09956109
0.09188662
0.08617929
0.08323436
0.08195332
0.08185166
0.08290557
0.08515129
0.08828834
0.09143224
0.09323343
0.09199188
0.08537051
0.07620557
0.0697266
0.06829527
0.07138789
0.07894583
0.09354485
0.0982011
0.09933962
0.09895022
0.09590583
0.08145342
0.02253193
0.1065971
0.1065074
0.1054312
0.1041384
0.1024192
0.09872235
0.09026873
0.08550277
0.08290405
0.08176667
0.08176029
0.08281734
0.0848799
0.0875618
0.08997582
0.09095014
0.08915496
0.08240202
0.07315806
0.06674262
0.06558787
0.06910048
0.07733728
0.0930066
0.09787099
0.0991412
0.0989277
0.09615405
0.08191828
0.02262813
0.1066207
0.1065148
0.1054003
0.1040486
0.1022167
0.09823266
0.08908471
0.08470989
0.08247229
0.08150541
0.08155209
0.08255948
0.08440594
0.08660721
0.08823791
0.08828719
0.08583391
0.07892268
0.06968396
0.06357977
0.06302745
0.06721596
0.07617669
0.09266251
0.09770727
0.09909014
0.09900162
0.09638937
0.08223397
0.02269277
0.1066349
0.1065194
0.1053783
0.1039799
0.1020567
0.09788571
0.08827308
0.08396923
0.08194616
0.08114037
0.08125829
0.08222341
0.0838458
0.08553614
0.08631454
0.08533504
0.08213535
0.07506523
0.0659313
0.06035126
0.0606063
0.06556594
0.07521399
0.09239041
0.09760154
0.09908171
0.09908321
0.09657111
0.08245064
0.02273515
0.1066417
0.1065173
0.1053514
0.1038972
0.1018412
0.09742877
0.0876434
0.08347172
0.08160191
0.08089759
0.08104549
0.08193772
0.08330848
0.08445161
0.08431737
0.08223234
0.07823469
0.07101695
0.06205125
0.05712252
0.05827615
0.06402099
0.07431444
0.09212743
0.0975028
0.09907132
0.09914101
0.09669365
0.08259025
0.0227618
0.1066438
0.1065095
0.1053147
0.1037764
0.1014762
0.09665352
0.0873562
0.08347432
0.0816486
0.08091623
0.08100096
0.08176426
0.08285602
0.0834428
0.08239271
0.07920464
0.07442255
0.06706912
0.05826124
0.05398583
0.05601507
0.06250145
0.07340139
0.09182918
0.09738415
0.09904146
0.09916773
0.09676456
0.08267159
0.02277722
0.1066432
0.1064996
0.1052791
0.1036575
0.1010679
0.09556673
0.08717433
0.08353023
0.08174019
0.08098472
0.0810098
0.08165312
0.08249476
0.08259103
0.08073646
0.07658352
0.07111631
0.06362816
0.05487494
0.05109978
0.05385775
0.06096644
0.07239012
0.09141889
0.09721358
0.098982
0.09916464
0.09679489
0.08271072
0.02278479
0.1066415
0.1064905
0.1052529
0.1035851
0.1008498
0.09497101
0.08679426
0.08334331
0.08167452
0.08097169
0.08099075
0.08156295
0.08222963
0.08197927
0.07956163
0.07473276
0.06876505
0.06114446
0.05227876
0.04870629
0.05193854
0.05945315
0.0711541
0.09070766
0.09691688
0.09887682
0.09913452
0.09679565
0.08272118
0.02278704
0.1066396
0.1064832
0.1052339
0.1035342
0.10059
0.09369814
0.08670562
0.08324953
0.08162534
0.08095574
0.08097289
0.08150414
0.08207969
0.08166884
0.07901087
0.0738987
0.06770069
0.0599955
0.05084967
0.04709806
0.05052083
0.0582227
0.06971884
0.08901444
0.0963262
0.09870304
0.09908176
0.09677781
0.08271474
0.02278612
0.1066382
0.1064783
0.1052218
0.1035005
0.100468
0.09326097
0.08652996
0.08316445
0.08158451
0.08093626
0.08095544
0.08147781
0.08205504
0.08169263
0.07915885
0.07421649
0.0681229
0.06041268
0.05082798
0.04642787
0.04967523
0.05740681
0.06844882
0.08395728
0.09529717
0.09848725
0.09902296
0.09675411
0.08270203
0.02278397
0.1066376
0.1064763
0.1052151
0.1034656
0.1002823
0.09293454
0.08671409
0.08326877
0.08160247
0.08092162
0.08093618
0.08148202
0.08215898
0.08206746
0.08005262
0.0757711
0.0701277
0.06246049
0.05229332
0.04675835
0.04934667
0.05682188
0.06747851
0.08369941
0.09490217
0.09836049
0.09898307
0.09673644
0.08269185
0.02278226
0.1066381
0.1064775
0.1052172
0.1034691
0.1002878
0.09295314
0.08675049
0.08329041
0.08159474
0.08089561
0.08091475
0.08151455
0.08237396
0.08273598
0.08155965
0.07833246
0.07343422
0.06588532
0.05512249
0.04816594
0.04969995
0.05672377
0.06718522
0.0812785
0.09456618
0.09830925
0.09896903
0.09673105
0.08268945
0.02278208
0.1066394
0.1064816
0.1052283
0.103512
0.1004903
0.09333542
0.08665739
0.08323826
0.0815664
0.08086541
0.08089807
0.08157154
0.08265729
0.08355565
0.08334836
0.08134306
0.07734475
0.06998967
0.05869317
0.05040049
0.05074569
0.05718338
0.06745943
0.08212147
0.09479245
0.09835183
0.09898084
0.09673777
0.08269458
0.02278331
0.1066414
0.1064884
0.1052457
0.1035611
0.1006544
0.09384377
0.08684907
0.08329284
0.08157313
0.0808576
0.08090461
0.08165739
0.0829771
0.08440865
0.08514096
0.08432674
0.08126278
0.07416651
0.06242911
0.05300483
0.05221903
0.05811166
0.06837785
0.08331157
0.09513508
0.09844895
0.09901209
0.09675132
0.08270202
0.0227848
0.1066437
0.1064972
0.1052699
0.1036337
0.1009843
0.0952206
0.08701974
0.08340252
0.08163294
0.08088756
0.08094068
0.08177007
0.08331419
0.08523665
0.08680921
0.08705952
0.08486886
0.07805054
0.06598069
0.0556781
0.05389732
0.05928265
0.06969946
0.08676649
0.09584384
0.09861237
0.09905567
0.09676268
0.08270354
0.02278498
0.1066457
0.1065075
0.1053028
0.1037369
0.1012218
0.09518624
0.08735611
0.08340324
0.08157669
0.08085115
0.08095138
0.08188281
0.08365376
0.08602583
0.088333
0.089501
0.0880756
0.08150793
0.06921513
0.05828544
0.05563841
0.06045297
0.0710992
0.09019221
0.09674516
0.09881605
0.09909744
0.09675998
0.08268904
0.02278199
0.1066464
0.1065178
0.10534
0.1038645
0.1017508
0.0971259
0.08738282
0.08325776
0.08145273
0.08077949
0.08095241
0.08200495
0.08400457
0.08679125
0.08974221
0.09169337
0.09091339
0.08454869
0.07217865
0.06096028
0.05773745
0.06207023
0.07250885
0.09129326
0.09713588
0.09892537
0.09910838
0.09672853
0.08264707
0.0227739
0.1066444
0.1065246
0.1053691
0.103947
0.1019834
0.09772906
0.08790964
0.08358824
0.08163766
0.08089485
0.08106941
0.08220373
0.08440303
0.08756157
0.09107716
0.09369501
0.09344328
0.08721894
0.07488778
0.06362038
0.05996822
0.06373463
0.07363934
0.09177629
0.09732286
0.09897398
0.09908499
0.09665685
0.08256437
0.02275829
0.1066375
0.1065256
0.1053909
0.1040084
0.1021263
0.09803643
0.0885671
0.08418731
0.08207746
0.08120543
0.08132348
0.0824945
0.08485723
0.08834586
0.09235973
0.09554595
0.09571426
0.08956333
0.07735633
0.06620142
0.06222003
0.06538736
0.07465651
0.09212642
0.097451
0.09899302
0.09902914
0.0965344
0.082425
0.02273177
0.106623
0.1065202
0.1054109
0.1040726
0.1022827
0.09844999
0.08966974
0.08490148
0.08252178
0.081512
0.08158337
0.08279424
0.08531335
0.08911116
0.09357752
0.09725368
0.09774699
0.09161088
0.07960405
0.06869585
0.06449565
0.06709069
0.07569223
0.09244149
0.09757327
0.09900733
0.09894964
0.0963538
0.08221001
0.02268983
0.1065989
0.106512
0.1054414
0.1041668
0.1025307
0.09933435
0.09200157
0.08495027
0.08251058
0.08156301
0.08169427
0.08299075
0.08568198
0.08978842
0.09468395
0.09879253
0.0995306
0.09336553
0.08163697
0.0711153
0.06684813
0.06895109
0.07686299
0.09280176
0.09774575
0.09906273
0.09887807
0.09612027
0.08189646
0.02262583
0.106568
0.1065197
0.1055146
0.1043277
0.1028553
0.1000023
0.09295928
0.08613605
0.08304483
0.08181759
0.08180626
0.08306988
0.08588177
0.09028721
0.09560585
0.1001101
0.1010248
0.0947987
0.08341491
0.07343055
0.06931964
0.07110792
0.07834428
0.09331068
0.09807093
0.09926206
0.09890244
0.09587346
0.08142818
0.02253045
0.1065495
0.1065999
0.1057134
0.1046523
0.1033645
0.1010461
0.09570102
0.08788843
0.08415704
0.08226333
0.08179161
0.0828577
0.08574699
0.0904756
0.09624806
0.1011369
0.1021593
0.09585273
0.08481822
0.07549261
0.07183569
0.07367249
0.08041742
0.0941645
0.09875144
0.09982002
0.09923101
0.0957336
0.08049367
0.02239393
0.1066019
0.1068728
0.1061881
0.1053174
0.1042792
0.1025118
0.09834793
0.09002687
0.08484388
0.0819878
0.08102316
0.08196772
0.08505222
0.090222
0.096526
0.1018089
0.1028831
0.09642492
0.08563934
0.07695784
0.07401152
0.07648037
0.08340699
0.09573189
0.1001323
0.1011015
0.1002823
0.09616622
0.07957952
0.0221981
0.1068068
0.1073885
0.1069576
0.106342
0.1056034
0.1043454
0.101307
0.0933107
0.08479083
0.08059317
0.07929469
0.08035541
0.08382768
0.08955678
0.09643202
0.1020852
0.1031524
0.09644322
0.08568566
0.07736476
0.07502116
0.07859374
0.0872554
0.09851559
0.1025144
0.1033791
0.1025098
0.09805081
0.079864
0.02195895
0.106685
0.1071213
0.1068943
0.1066281
0.106328
0.1057701
0.1042037
0.0989103
0.08460806
0.07900184
0.07753891
0.07882411
0.082661
0.08880437
0.09604528
0.1018931
0.1028839
0.09591882
0.08505222
0.07668935
0.07428332
0.07864526
0.09272319
0.1025697
0.1051098
0.1056344
0.1052037
0.1022588
0.08605545
0.02337735
0.1068067
0.1073871
0.1069528
0.1063276
0.1055602
0.1042057
0.1008663
0.09292006
0.08464884
0.08057932
0.07927652
0.08017963
0.08320397
0.08800355
0.09341893
0.09741472
0.09730632
0.09051385
0.08108391
0.07467036
0.07397076
0.07900209
0.08976997
0.0996344
0.1028142
0.1034728
0.1025483
0.0980756
0.07988783
0.02196018
0.1061551
0.1077524
0.1081265
0.1074118
0.1059553
0.1035137
0.09919127
0.09286998
0.08680806
0.08296258
0.08132677
0.08179649
0.08435499
0.08865573
0.09358592
0.09722701
0.09705349
0.09052121
0.08137121
0.07518478
0.07461184
0.07916932
0.08717135
0.0947341
0.0985619
0.09915959
0.09645572
0.08748275
0.06365723
0.01661729
0.105274
0.1062682
0.1067837
0.1061676
0.1045603
0.1018535
0.09748576
0.09242664
0.08789607
0.08472799
0.08318351
0.08341639
0.08550273
0.08914023
0.09332234
0.09634137
0.09594838
0.08967445
0.08082586
0.07474231
0.07388965
0.07753169
0.08383958
0.09022632
0.09385271
0.09422756
0.09096678
0.08140831
0.0585703
0.01593979
0.1049095
0.1052178
0.1052849
0.1043893
0.1025464
0.09962598
0.09549282
0.09118281
0.08764105
0.08518876
0.08400651
0.08427515
0.08608652
0.0891592
0.09258467
0.09488575
0.09414681
0.08799532
0.07926618
0.07309113
0.0718418
0.07470628
0.08006654
0.08611221
0.08979201
0.0903663
0.0875735
0.07911797
0.058211
0.01635844
0.1048186
0.1047751
0.104452
0.10322
0.1010806
0.09782407
0.09371368
0.08977358
0.08677841
0.08484253
0.08401849
0.08441769
0.08607813
0.08868508
0.09137979
0.09289855
0.09169485
0.08553411
0.07678366
0.07046951
0.06899605
0.07157727
0.07682728
0.08326404
0.08730169
0.08833659
0.08630125
0.0790649
0.05948606
0.01678172
0.1048186
0.1046334
0.104084
0.1026081
0.1002175
0.09662838
0.0924436
0.08876112
0.08603443
0.08434531
0.08370847
0.08416922
0.08567839
0.0878355
0.08977396
0.09041973
0.08863433
0.08239179
0.0736037
0.06729846
0.06596501
0.06878478
0.07445645
0.08155849
0.0860575
0.08757932
0.08619455
0.07980832
0.06086509
0.01707839
0.1048359
0.1045966
0.1039265
0.1022973
0.09972968
0.09587573
0.09147391
0.0879046
0.08536419
0.08383055
0.08329217
0.08375224
0.08507451
0.08674494
0.08784958
0.08749948
0.08502299
0.07868031
0.06993046
0.0638719
0.06303623
0.06643929
0.07274944
0.08054463
0.08548096
0.08741572
0.08650206
0.08064506
0.06198234
0.01727407
0.1048485
0.1045828
0.1038414
0.1021105
0.0994163
0.09536336
0.09076963
0.08720495
0.08476867
0.08334411
0.0828709
0.08329995
0.08440055
0.08552576
0.08568998
0.08420831
0.0809557
0.07452841
0.06592301
0.06033567
0.06025323
0.06441228
0.07141352
0.07985485
0.08517224
0.08743665
0.08685156
0.08132059
0.06278411
0.01739967
0.1048523
0.1045649
0.1037682
0.1019512
0.09914683
0.09494256
0.09028096
0.08674645
0.08437801
0.0830137
0.08256029
0.08291807
0.08375547
0.0842741
0.08339674
0.08067432
0.07660803
0.07013474
0.06175102
0.05677696
0.05757715
0.06254905
0.07023096
0.07924977
0.08491954
0.08745453
0.08710487
0.08178164
0.06330921
0.0174772
0.1048493
0.104538
0.1036879
0.1017834
0.09888266
0.09467719
0.09011507
0.08662906
0.08426839
0.08289253
0.08240022
0.08264607
0.08319392
0.08308229
0.08112898
0.07714846
0.07230532
0.06582689
0.0576608
0.0533036
0.05497755
0.06073032
0.06905043
0.07860705
0.08463075
0.08740102
0.0872316
0.0820488
0.06361825
0.01752129
0.1048429
0.1045086
0.1036122
0.1016289
0.09862105
0.09441497
0.08996646
0.0865483
0.08421334
0.08283427
0.0823061
0.08244818
0.08273458
0.08205842
0.07914261
0.07405573
0.06855359
0.06207437
0.05400649
0.05009059
0.05248443
0.05890289
0.06777211
0.07781951
0.08425199
0.08725528
0.08724189
0.08216289
0.06376783
0.01754225
0.1048358
0.1044825
0.1035523
0.1015132
0.09840476
0.09410733
0.08970345
0.08636705
0.08409795
0.08275254
0.08221897
0.0822948
0.08239621
0.08132218
0.07773728
0.07188488
0.06590134
0.0593807
0.05121337
0.04739461
0.05023154
0.05713321
0.06639508
0.0768281
0.08372244
0.08700916
0.08715859
0.08216714
0.06380676
0.01754769
0.1048297
0.104462
0.1035088
0.1014325
0.09824525
0.0939215
0.08953198
0.08623305
0.08400624
0.08268511
0.08214986
0.0821892
0.08219923
0.08094846
0.07708572
0.07091871
0.06470907
0.05814285
0.04968523
0.04551876
0.04845075
0.0556383
0.06508467
0.07562271
0.08300885
0.08667373
0.08701413
0.08210541
0.06377952
0.01754394
0.1048256
0.1044486
0.1034813
0.1013813
0.09814282
0.09376594
0.08940702
0.086141
0.08393993
0.08263247
0.08209788
0.08213232
0.08215482
0.08097279
0.07726307
0.0712906
0.06518029
0.05860163
0.04970378
0.04469672
0.04728247
0.05451845
0.0639922
0.07435315
0.08222769
0.08632749
0.08685987
0.0820238
0.0637284
0.01753672
0.1048239
0.1044433
0.1034696
0.1013552
0.09807898
0.09374829
0.089424
0.08613335
0.08391184
0.08259581
0.08206194
0.08212567
0.0822725
0.08142756
0.07835423
0.07314278
0.06745688
0.06084581
0.05138509
0.04510411
0.04684592
0.05382375
0.06319837
0.07349924
0.08171457
0.08608971
0.0867501
0.08196292
0.06368893
0.01753111
0.104825
0.1044466
0.1034756
0.1013647
0.09809512
0.09377302
0.08945003
0.08614474
0.08390402
0.08257509
0.08204585
0.08216942
0.08253514
0.08225221
0.08022331
0.0762474
0.07127074
0.06463678
0.05457913
0.04682361
0.04733762
0.05378384
0.06295759
0.07315638
0.08152232
0.08600528
0.08671275
0.08194613
0.06368235
0.01753062
0.1048288
0.104458
0.1034989
0.1014101
0.09819381
0.09384961
0.0894929
0.08617844
0.08392021
0.08257668
0.08205553
0.08225642
0.08288454
0.08324999
0.08240532
0.07985597
0.07578528
0.06918447
0.05858048
0.04952026
0.04871564
0.05446476
0.06334883
0.0734679
0.08168948
0.08607647
0.08674921
0.08197338
0.06370724
0.01753479
0.1048348
0.1044767
0.1035376
0.1014822
0.09833587
0.09404192
0.08962855
0.08626643
0.08397673
0.08261529
0.08210243
0.08238378
0.08327275
0.08425643
0.08451301
0.08331824
0.08021805
0.07377559
0.06271636
0.0526162
0.05062179
0.05565525
0.06425244
0.07425413
0.08212457
0.08627726
0.08684142
0.08202433
0.06374279
0.01754008
0.1048423
0.1045014
0.1035908
0.101586
0.09854206
0.09429068
0.08983955
0.08642368
0.08408762
0.08269764
0.08218836
0.08254639
0.08367574
0.085204
0.08640429
0.08638624
0.0842045
0.07799489
0.06660206
0.05574911
0.05277045
0.05712612
0.06546509
0.07543273
0.08279861
0.08657014
0.08695522
0.08206416
0.06375567
0.01754166
0.1048505
0.1045312
0.1036607
0.1017249
0.09876644
0.09457318
0.09000017
0.08651013
0.0841517
0.08276244
0.08228028
0.08272757
0.08408434
0.08608836
0.08808247
0.0890537
0.08767954
0.0817074
0.07009629
0.05875447
0.05499344
0.05868123
0.06670497
0.07668603
0.08356501
0.08688098
0.08704139
0.0820485
0.06370563
0.01753411
0.1048574
0.1045619
0.1037387
0.1018823
0.09903022
0.09476452
0.09007784
0.0865514
0.08419451
0.082826
0.08238886
0.08293591
0.08450998
0.08693501
0.08960286
0.09140131
0.09070774
0.08493553
0.07322979
0.06168979
0.05741606
0.06052812
0.06813794
0.07776679
0.08411542
0.08708205
0.08703855
0.08192753
0.06354736
0.01751166
0.10486
0.1045865
0.10381
0.1020267
0.09927028
0.09512581
0.09043538
0.08684701
0.08442993
0.08302872
0.08259979
0.08322072
0.0849838
0.08777782
0.09102327
0.09351544
0.09337841
0.08774562
0.07604606
0.06452796
0.05991918
0.06246008
0.0695079
0.07860056
0.08448504
0.08716425
0.08691642
0.08165628
0.0632326
0.01746691
0.1048555
0.1046017
0.1038754
0.1021668
0.0995061
0.09551854
0.09096754
0.08737786
0.08488692
0.08341103
0.08294583
0.08360182
0.08551709
0.08863168
0.09237729
0.09545377
0.09575951
0.0901992
0.07858608
0.06725071
0.06243904
0.06442803
0.07084925
0.07934564
0.08477992
0.08716285
0.08666741
0.08119456
0.06270547
0.01738965
0.1048421
0.1046133
0.1039567
0.1023479
0.09981635
0.09605033
0.09171897
0.08807144
0.08546112
0.08388307
0.08335963
0.08402853
0.08607137
0.08947241
0.09366103
0.09723432
0.09788251
0.09233394
0.08088158
0.06986838
0.06499294
0.06649651
0.07227436
0.08012124
0.08512343
0.08715675
0.08632412
0.08052186
0.06190527
0.0172651
0.1048237
0.1046483
0.104113
0.1026615
0.1003222
0.09686735
0.09256597
0.08872934
0.08599026
0.08431909
0.08373549
0.08440599
0.08656326
0.09023437
0.09483205
0.09883681
0.09974151
0.09415421
0.08293444
0.07238535
0.06763329
0.06880596
0.074002
0.08117584
0.08572282
0.08733264
0.08602365
0.07969013
0.06079204
0.01707102
0.1048227
0.1047881
0.1044793
0.1032739
0.1011886
0.09805718
0.09391521
0.08983064
0.08678463
0.08484112
0.08405553
0.08464066
0.08687767
0.09081548
0.09581533
0.1002109
0.1012989
0.09562596
0.08468771
0.07473612
0.07035365
0.07147693
0.07628832
0.08284399
0.08696209
0.08809383
0.08613563
0.07895162
0.05941627
0.01677625
0.1049127
0.1052289
0.1053102
0.104441
0.1026482
0.09982593
0.09576986
0.09139763
0.08776237
0.0852509
0.08407258
0.08449513
0.08681937
0.09107259
0.09651328
0.1012886
0.1024923
0.09668238
0.08600506
0.07671849
0.07296251
0.07445679
0.07932484
0.08555233
0.08940808
0.09011683
0.08741189
0.07901059
0.05814702
0.01635479
0.1052763
0.1062774
0.1068064
0.1062172
0.1046587
0.1020221
0.09770278
0.09261324
0.08799092
0.08476466
0.08322868
0.08361019
0.08617089
0.09087573
0.09684223
0.1020073
0.1032633
0.09723812
0.08669229
0.07797881
0.07496218
0.07724397
0.08285934
0.0894468
0.09340498
0.09397599
0.09081805
0.08131348
0.05851507
0.01593767
0.1061563
0.1077584
0.1081428
0.1074507
0.1060425
0.1036942
0.09950562
0.09314924
0.08694129
0.08300005
0.08135806
0.08196741
0.08497226
0.09025608
0.09679331
0.1023255
0.1035732
0.09724101
0.08662382
0.07819453
0.0756962
0.07883027
0.08580687
0.09369911
0.09809475
0.09894658
0.096347
0.08741775
0.06361889
0.01661656
0.1068068
0.1073885
0.1069577
0.1063422
0.1056028
0.1043295
0.1011744
0.09307612
0.08499068
0.0807105
0.07933812
0.08035588
0.08380065
0.08952553
0.09643405
0.1021611
0.1033325
0.09671483
0.08596824
0.07757357
0.07513419
0.07864045
0.08727035
0.09851551
0.102512
0.1033775
0.1025106
0.09805594
0.07987586
0.02196032
0.1066016
0.1068708
0.1061818
0.1052988
0.1042144
0.1021873
0.09701167
0.0899624
0.08486454
0.08204034
0.08102992
0.08178135
0.08438287
0.08859067
0.09340694
0.09702051
0.09696277
0.09056247
0.08131664
0.07474629
0.07351427
0.07720963
0.08492124
0.0963243
0.1003498
0.1011996
0.1003392
0.09621195
0.07962506
0.0222007
0.1052742
0.106269
0.1067855
0.1061715
0.104566
0.1018503
0.0975755
0.09249191
0.08793241
0.08475406
0.08319506
0.08340771
0.08548746
0.08916971
0.09348683
0.09673036
0.09659225
0.09048203
0.08157185
0.07527114
0.07421373
0.07771296
0.08388957
0.09020253
0.09384753
0.09423962
0.09099205
0.08144535
0.05860954
0.01594629
0.1039325
0.1038684
0.104836
0.1051291
0.1042167
0.1019915
0.09837963
0.0941297
0.09011405
0.08701747
0.08523868
0.08504421
0.0865595
0.08953135
0.09306918
0.09565659
0.0952732
0.08947923
0.08100582
0.07498463
0.0738794
0.07681183
0.08174554
0.08642382
0.08886023
0.08817245
0.08324295
0.0715655
0.04869162
0.01321848
0.103343
0.1022132
0.1025362
0.1027373
0.1020476
0.1001961
0.0972468
0.09377452
0.09044272
0.08777788
0.08616104
0.08587505
0.08704347
0.08941196
0.09216005
0.09398762
0.09322896
0.08762754
0.07942155
0.07345984
0.07208282
0.07433667
0.07826445
0.08194345
0.0837215
0.0826526
0.07755776
0.06626377
0.04509271
0.01273586
0.1031571
0.10149
0.101191
0.1009252
0.09999265
0.09809039
0.09538802
0.09238621
0.08959576
0.08739871
0.0860903
0.08589998
0.08689779
0.08878274
0.09076426
0.09175547
0.09049575
0.08496054
0.07685792
0.0708254
0.06918561
0.07099269
0.07443186
0.07782162
0.07959789
0.07887377
0.07454789
0.06455733
0.04497857
0.013047
0.1031187
0.1012422
0.1005899
0.099948
0.09870622
0.09657689
0.09385212
0.09102992
0.08852088
0.08662169
0.08555075
0.08546114
0.08633015
0.08775794
0.08893225
0.08897432
0.08709217
0.08154703
0.07350004
0.06746077
0.06582108
0.06763772
0.07118307
0.07488238
0.07709915
0.07705363
0.07369895
0.06491554
0.04624291
0.01342455
0.1031203
0.1011699
0.1003428
0.09947204
0.09799898
0.09564606
0.09278337
0.0899785
0.08758707
0.08584272
0.0849056
0.08485525
0.08555774
0.08647354
0.08672569
0.08565998
0.08304551
0.07748184
0.06954888
0.06369822
0.06241325
0.06466598
0.06872281
0.07303294
0.07583622
0.07647806
0.0739327
0.06598214
0.04768756
0.01370496
0.1031256
0.1011444
0.1002254
0.09921831
0.09758889
0.0950656
0.09206669
0.08921974
0.08686641
0.08519775
0.08432463
0.08425443
0.08472922
0.08503597
0.08420029
0.08184319
0.07842105
0.0728927
0.0651842
0.05974317
0.0591142
0.06207749
0.06683382
0.07183283
0.07520754
0.07641982
0.07446035
0.06703153
0.04885711
0.01388947
0.1031258
0.1011219
0.1001409
0.09903944
0.09729123
0.09465686
0.09158191
0.08871001
0.08637387
0.08474008
0.08388395
0.08374577
0.08393355
0.0835291
0.08143205
0.07762316
0.07338812
0.06799519
0.06060793
0.05572856
0.05592551
0.05971235
0.06520599
0.07086179
0.0747915
0.07645303
0.07490575
0.06780453
0.0496619
0.01400284
0.1031206
0.1010926
0.1000583
0.09887864
0.09703756
0.0943647
0.09128402
0.08841326
0.08608422
0.08445745
0.08358658
0.08335114
0.08322059
0.0820501
0.07859212
0.07328214
0.06832946
0.06316982
0.0561146
0.05179863
0.05282768
0.05742872
0.06363477
0.06991192
0.07436532
0.07639158
0.07514604
0.06826417
0.05014227
0.01406591
0.1031127
0.1010606
0.09998051
0.09873502
0.09681137
0.0941037
0.09103405
0.08818454
0.08587559
0.08426016
0.08337518
0.08304881
0.0826261
0.08075274
0.07604545
0.06941492
0.06390821
0.05898657
0.05212442
0.04816102
0.04984945
0.05515473
0.06200289
0.06885916
0.07383213
0.07617907
0.07517505
0.06845564
0.05036958
0.01409392
0.1031046
0.1010314
0.09991561
0.09862008
0.09662737
0.09386807
0.09079377
0.08796736
0.08568831
0.08409476
0.08320784
0.08281907
0.08218856
0.07982492
0.07426552
0.06674921
0.06083329
0.05602748
0.04912036
0.04510028
0.04711629
0.05293986
0.06031913
0.06768438
0.07316445
0.07582358
0.0750353
0.0684495
0.05041694
0.01409819
0.1030977
0.1010081
0.09986647
0.09853589
0.09649398
0.09369855
0.09061738
0.08780463
0.08554573
0.0839668
0.08307873
0.08265688
0.08192941
0.07935802
0.07345917
0.06559322
0.0594759
0.05469248
0.04753193
0.04295003
0.04485356
0.0509588
0.05872283
0.06647637
0.07240382
0.07537693
0.07479586
0.06832696
0.05035755
0.01408838
0.1030931
0.1009928
0.09983506
0.09848279
0.09640963
0.09358812
0.09050296
0.08769751
0.08544839
0.08387466
0.08298456
0.08256101
0.08185847
0.079382
0.07367416
0.06603633
0.06001332
0.05520614
0.0476593
0.04203569
0.04331423
0.04940197
0.05737615
0.06538045
0.07167009
0.07494042
0.07454438
0.06817265
0.05026263
0.01407357
0.1030913
0.1009868
0.09982251
0.09846067
0.09637248
0.09354735
0.0904627
0.08765249
0.08539813
0.08381849
0.08292686
0.08253784
0.08199588
0.07995996
0.07507307
0.06833045
0.06266228
0.05768517
0.04962555
0.0426293
0.04278963
0.04851893
0.05649239
0.06462223
0.07116163
0.07463651
0.07436667
0.06806071
0.05019249
0.01406262
0.1030925
0.1009906
0.09982976
0.09847213
0.09638953
0.09356855
0.09048235
0.08766327
0.0853958
0.08380326
0.08291288
0.08259218
0.08232897
0.08104067
0.07756081
0.07232537
0.06724299
0.06194139
0.0532475
0.04479226
0.04352066
0.04858652
0.05634039
0.06442142
0.07100756
0.07454095
0.07431515
0.06803613
0.05018418
0.01406219
0.1030966
0.1010037
0.09985603
0.09851612
0.09645962
0.09365179
0.09056173
0.08773001
0.08544394
0.08383462
0.08294835
0.08271334
0.08277386
0.08232665
0.08040818
0.07691962
0.07268462
0.06710393
0.05775927
0.04808203
0.04539703
0.04962307
0.05696765
0.06481985
0.07122714
0.07466243
0.07439323
0.06809831
0.05023477
0.01407119
0.1031032
0.101025
0.09989941
0.09858903
0.09657528
0.09379516
0.09070297
0.0878556
0.08554825
0.08392034
0.08303877
0.08289016
0.08325726
0.08356896
0.0830191
0.08113345
0.07788507
0.07227526
0.0623692
0.05176512
0.04791226
0.05129488
0.05814555
0.06566311
0.07173767
0.07495334
0.0745607
0.06820607
0.05030772
0.01408309
0.1031116
0.101053
0.09995795
0.09868998
0.09673591
0.09400019
0.09091184
0.08804574
0.08571179
0.08406173
0.08318358
0.0831149
0.08374971
0.0846917
0.08524814
0.08470476
0.08242333
0.07696188
0.06665027
0.05542148
0.05068894
0.05329523
0.05962199
0.06676162
0.0724184
0.07533106
0.07474801
0.06829192
0.0503455
0.01408949
0.1031209
0.1010859
0.1000309
0.09881887
0.09693647
0.09423457
0.09113476
0.08824888
0.08589596
0.08423445
0.08336921
0.08338037
0.08424968
0.08571063
0.08715155
0.08770161
0.08628212
0.08103187
0.07045567
0.05886638
0.05351152
0.05541166
0.06118178
0.06790008
0.07312211
0.07569085
0.07486912
0.06827422
0.05028006
0.01408201
0.1031294
0.1011195
0.1001115
0.09896592
0.09716291
0.09448015
0.09136909
0.08847199
0.08611066
0.08444844
0.08360483
0.08369584
0.08477373
0.08667035
0.08883161
0.09027357
0.08958405
0.08453168
0.07381162
0.06210922
0.05638231
0.0576728
0.062851
0.06903698
0.07372758
0.07592813
0.07483536
0.06806729
0.05003841
0.01405168
0.1031343
0.1011476
0.1001897
0.09911702
0.09740529
0.09479648
0.09172083
0.0888277
0.08645327
0.08477785
0.08394138
0.08409459
0.08534961
0.08761515
0.09037582
0.09255255
0.09246196
0.08755547
0.07678733
0.06516991
0.05925946
0.06000288
0.06453645
0.07009761
0.07421312
0.07601124
0.07459507
0.06759856
0.04954826
0.01398747
0.1031335
0.101168
0.1002692
0.09928629
0.09768613
0.09519874
0.09222338
0.08936975
0.08698316
0.085274
0.08441517
0.08459801
0.08599151
0.08856817
0.09183565
0.0946231
0.09501128
0.09018575
0.0794491
0.06807664
0.06214093
0.06241457
0.06629124
0.07117613
0.0746742
0.0759963
0.07415356
0.06682283
0.04873914
0.01387427
0.1031273
0.1011912
0.1003832
0.09953599
0.0980915
0.09578365
0.09295235
0.0901368
0.08771253
0.08593269
0.0850106
0.08518282
0.08667503
0.08951504
0.09321901
0.09651856
0.09727859
0.09247025
0.08183703
0.07085364
0.0650649
0.06500751
0.06828568
0.0724866
0.07533868
0.07607195
0.07363342
0.06577615
0.04757035
0.01369107
0.1031249
0.1012615
0.1006282
0.1000121
0.09880421
0.09672808
0.09400816
0.09115995
0.08862499
0.08670397
0.08565564
0.0857673
0.08732227
0.09039449
0.09448969
0.09822694
0.0992653
0.0944134
0.0839415
0.07347952
0.06805056
0.06791004
0.07078382
0.07440084
0.07662385
0.07666132
0.0734079
0.06471485
0.04612954
0.01341271
0.1031623
0.1015074
0.1012275
0.1009898
0.1000951
0.09825106
0.09556105
0.09253837
0.08972011
0.08749772
0.08620568
0.0861914
0.08778839
0.09109467
0.09557274
0.09970217
0.1009382
0.09597548
0.08568057
0.07582706
0.0709853
0.07112286
0.07398212
0.07732706
0.07912118
0.07848834
0.074264
0.06436223
0.04486934
0.01303746
0.1033473
0.1022289
0.1025711
0.1028017
0.1021532
0.1003622
0.09744895
0.09396737
0.09059748
0.08789381
0.08628055
0.08614675
0.08784542
0.09146091
0.09636972
0.1008805
0.1022442
0.09708318
0.08689767
0.07762574
0.07351187
0.07429973
0.07769786
0.08137592
0.08322854
0.08227672
0.07728831
0.06607992
0.04499027
0.01272845
0.1039361
0.103882
0.1048677
0.1051906
0.1043223
0.102156
0.0985609
0.09430015
0.09023867
0.08710019
0.08532482
0.08527361
0.0872739
0.09136275
0.09679918
0.101704
0.1031296
0.09766395
0.08741667
0.07852573
0.07504969
0.07663633
0.08103343
0.08577018
0.08836819
0.08783456
0.08301495
0.07141254
0.04860534
0.01321343
0.1052765
0.1062783
0.1068085
0.106221
0.1046655
0.102033
0.09772021
0.09264986
0.08803374
0.08479729
0.08323669
0.08358846
0.08612465
0.09083003
0.09684734
0.1021258
0.1035484
0.09768945
0.0871824
0.0783608
0.07518269
0.07734495
0.08289674
0.08945448
0.09341421
0.09399295
0.09084475
0.08135092
0.05855436
0.01594413
0.106602
0.1068732
0.106189
0.1053195
0.104283
0.1025044
0.09822362
0.09002475
0.08494683
0.08206587
0.0810477
0.08193466
0.08497406
0.09014466
0.09653551
0.1020073
0.1033535
0.09715283
0.08641478
0.07754781
0.07434325
0.07662765
0.08346121
0.09574301
0.1001393
0.10111
0.1002947
0.09618548
0.07960746
0.02220048
0.1065489
0.1065977
0.1057076
0.1046366
0.1033203
0.1009103
0.09532084
0.08768893
0.08411092
0.08228577
0.08176809
0.08262759
0.08501513
0.08876272