/*--------------------------------*- C++ -*----------------------------------*\
| =========                 |                                                 |
| \\      /  F ield         | OpenFOAM: The Open Source CFD Toolbox           |
|  \\    /   O peration     | Version:  2506                                  |
|   \\  /    A nd           | Website:  www.openfoam.com                      |
|    \\/     M anipulation  |                                                 |
\*---------------------------------------------------------------------------*/
FoamFile
{
    version     2.0;
    format      ascii;
    arch        "LSB;label=32;scalar=64";
    class       volScalarField;
    location    "200/airRegion";
    object      k;
}
// * * * * * * * * * * * * * * * * * * * * * * * * * * * * * * * * * * * * * //

dimensions      [0 2 -2 0 0 0 0];

internalField   nonuniform List<scalar> 
85779
(
0.09241483
0.08934596
0.08844927
0.08808386
0.08784055
0.08742245
0.0859397
0.07967682
0.05057741
0.03713482
0.02983801
0.02551642
0.02300237
0.02172986
0.02125174
0.02113742
0.02115927
0.02145717
0.02265368
0.02587585
0.03282652
0.04707258
0.07859001
0.08564468
0.0873218
0.08782917
0.08801478
0.08782072
0.08604204
0.07249407
0.09017264
0.08488076
0.08290089
0.08194505
0.08123355
0.08009184
0.07657083
0.06029678
0.04486187
0.03509121
0.02899557
0.02514138
0.0228316
0.02165477
0.02121938
0.02110596
0.02106494
0.02118496
0.02209953
0.02484313
0.03063796
0.04116275
0.05835763
0.07615533
0.07983045
0.08095173
0.08132491
0.08098733
0.07858654
0.06396355
0.09012908
0.08422367
0.08174857
0.08043221
0.07936569
0.07757463
0.07226087
0.05215865
0.04052183
0.03304489
0.02804096
0.02470591
0.0226265
0.02151368
0.02103888
0.02082413
0.02064405
0.02058084
0.02126481
0.02359665
0.02848173
0.03696051
0.05062854
0.07286646
0.07747627
0.07895445
0.07956703
0.07953867
0.07790089
0.06536629
0.09039241
0.08437986
0.08171133
0.08019538
0.07882731
0.07610711
0.06657656
0.04789643
0.03796022
0.03160972
0.02727349
0.02431383
0.02241539
0.02134253
0.02080408
0.02045716
0.02010748
0.01984219
0.02031878
0.02236641
0.02675172
0.03442447
0.04749014
0.07173239
0.07682233
0.07855802
0.07940625
0.07968495
0.07854843
0.06652815
0.09062077
0.0846271
0.08188592
0.08025562
0.07865201
0.07496511
0.05789388
0.04478363
0.03627749
0.03060521
0.02667952
0.0239687
0.02219311
0.02113364
0.02051513
0.02001853
0.01947926
0.01899663
0.01929261
0.02118102
0.02538126
0.03286528
0.04604434
0.07132251
0.07671558
0.07865883
0.07969994
0.08018448
0.07928137
0.06734609
0.09077369
0.0848148
0.08204216
0.08033433
0.07852976
0.07414356
0.05415691
0.04252872
0.03499505
0.02983152
0.02619711
0.02365574
0.02195661
0.02088613
0.02017317
0.01951312
0.0187684
0.01805843
0.01820098
0.0200227
0.02421527
0.03175396
0.04517884
0.07110146
0.07673949
0.07886202
0.08005354
0.08066318
0.0798341
0.06792209
0.09086614
0.08493198
0.08213939
0.08037349
0.07843174
0.07367558
0.05270224
0.04128507
0.03413158
0.02925104
0.02580131
0.02336862
0.02171024
0.02060877
0.01978867
0.01895293
0.01798909
0.01704669
0.01706244
0.01888062
0.02315199
0.03082149
0.0444843
0.07088567
0.07674951
0.07903354
0.08034517
0.0810353
0.08022746
0.06831024
0.09091853
0.0849972
0.0821869
0.08037043
0.07831336
0.0732969
0.05195577
0.04054973
0.03354559
0.0288125
0.02547292
0.02310646
0.0214642
0.02031743
0.01938
0.01835767
0.01716274
0.01598705
0.01590183
0.01775874
0.02214675
0.02996059
0.04382802
0.07062422
0.07670399
0.07913682
0.08054861
0.08129619
0.08049358
0.06856494
0.09094727
0.08503078
0.08220181
0.08032551
0.07809799
0.07264678
0.0511922
0.03992091
0.03306531
0.0284502
0.02519277
0.02287171
0.02123187
0.02003156
0.01897067
0.01775455
0.01632005
0.01491561
0.01475232
0.01667209
0.02118644
0.02913433
0.04317037
0.07030542
0.07659844
0.07917106
0.08066983
0.08146297
0.08066312
0.06872487
0.09096327
0.0850477
0.08219758
0.08022662
0.07761529
0.07065493
0.04985856
0.03916338
0.03259358
0.02812736
0.02495118
0.02266796
0.02102472
0.01976919
0.01858639
0.01717912
0.01550636
0.01388587
0.01365844
0.0156427
0.02027019
0.02832821
0.0424961
0.06989722
0.07643757
0.07914717
0.08072426
0.08155646
0.08076129
0.06881704
0.09097107
0.08505336
0.08218317
0.08012122
0.07708435
0.06761644
0.04850855
0.03848005
0.03218429
0.027853
0.02474803
0.02249653
0.0208489
0.01954422
0.01825408
0.01667755
0.0147886
0.01297365
0.01267785
0.01469734
0.01939641
0.0275148
0.04175343
0.06933311
0.07621772
0.07907666
0.08072867
0.08159617
0.08080843
0.06886152
0.09097368
0.08505204
0.08216622
0.08005502
0.07684031
0.06672828
0.04787836
0.03805226
0.03188724
0.02763981
0.0245856
0.02235816
0.02070776
0.01936754
0.01800067
0.01630272
0.01424913
0.01226835
0.01187798
0.01386904
0.01856039
0.02662582
0.04075985
0.06846662
0.07589104
0.0789619
0.08069767
0.08159921
0.08082114
0.06887381
0.09097394
0.08504824
0.08214986
0.08000225
0.07651857
0.06243838
0.04715481
0.03773381
0.03167531
0.02748472
0.02446494
0.02225433
0.02060415
0.01924722
0.01784663
0.01609665
0.01395904
0.01185108
0.01132691
0.01320286
0.01777522
0.02557432
0.03907182
0.06615293
0.07526388
0.0787899
0.08064407
0.08158089
0.08081368
0.06886699
0.09097349
0.08504487
0.0821385
0.07996622
0.07637589
0.0617786
0.04683319
0.03754277
0.03154305
0.02738617
0.02438637
0.02218593
0.0205399
0.01918776
0.01780226
0.01608073
0.01395929
0.01177593
0.01108251
0.01275935
0.01712661
0.02450879
0.03656411
0.05675251
0.07416513
0.07858914
0.08058635
0.08155587
0.08079862
0.06885286
0.0909733
0.0850436
0.08213327
0.07993049
0.07611179
0.05959757
0.04626924
0.03738705
0.03147574
0.02734186
0.02434999
0.02215399
0.02051656
0.01919038
0.01786732
0.01625306
0.01425097
0.01205942
0.01118338
0.01260519
0.01674851
0.0238652
0.03549053
0.05770889
0.0738087
0.07847697
0.08054743
0.08153704
0.08078655
0.0688418
0.09097367
0.08504468
0.08213572
0.07993502
0.07611893
0.05959875
0.04628872
0.03741533
0.03149932
0.02735669
0.02435781
0.02216048
0.02053523
0.01925117
0.01802315
0.01656612
0.01475039
0.01264374
0.01162155
0.01277591
0.01669678
0.02364292
0.03481982
0.05253297
0.07348056
0.07843295
0.08053451
0.08153177
0.08078407
0.06884074
0.09097448
0.08504787
0.0821454
0.07997929
0.07639734
0.06178411
0.0468946
0.03762722
0.03161173
0.02742915
0.02440937
0.02220526
0.02059369
0.01935985
0.01823984
0.01695373
0.01533494
0.01337967
0.01228545
0.01323239
0.01697392
0.02388176
0.0353502
0.0546023
0.07371474
0.0784715
0.08054766
0.0815398
0.08079076
0.06884886
0.09097523
0.0850522
0.08216014
0.08002963
0.07659553
0.06261625
0.04736477
0.03790588
0.0317923
0.02755448
0.02450339
0.02228756
0.02068928
0.01950762
0.01849498
0.01737219
0.01594134
0.01415874
0.01306283
0.01388256
0.01751835
0.0244833
0.03623577
0.05593012
0.07401907
0.07855893
0.08057851
0.08155396
0.08079985
0.06885896
0.09097514
0.08505642
0.08217837
0.08009657
0.07698704
0.06708642
0.04827604
0.038316
0.03204718
0.02773256
0.02463894
0.02240582
0.02081897
0.01968838
0.01877755
0.01780444
0.01654598
0.0149349
0.01389094
0.01466228
0.0182766
0.02544761
0.03798387
0.06176813
0.07470629
0.07870414
0.08061663
0.0815631
0.08080127
0.06886129
0.09097215
0.08505693
0.08219662
0.08019222
0.07727788
0.06561444
0.04911823
0.03888411
0.03239742
0.02796793
0.02481478
0.02255731
0.02097933
0.01989791
0.01908314
0.01824747
0.01714733
0.01570021
0.01474437
0.01552649
0.01917603
0.02665847
0.04042023
0.06776408
0.07570203
0.07888858
0.08064608
0.08155347
0.08078304
0.06884448
0.0909644
0.08505141
0.08221233
0.08030889
0.07800752
0.07222181
0.0508715
0.0396354
0.03282533
0.02825285
0.02502782
0.02273976
0.0211676
0.02013304
0.01940962
0.01870257
0.01775124
0.0164624
0.01562011
0.01644812
0.02010998
0.02766882
0.0416482
0.06907864
0.0760928
0.07898327
0.08063972
0.08150926
0.08073203
0.06879687
0.09094958
0.08503676
0.08221633
0.08037159
0.07825904
0.07312612
0.05164565
0.04021358
0.03325057
0.02857041
0.02527587
0.02295262
0.02138161
0.02039005
0.01975352
0.01916893
0.01836113
0.0172285
0.01651747
0.01741272
0.02106696
0.02858127
0.04248238
0.0696715
0.07629657
0.0790141
0.08058426
0.08141367
0.08063209
0.06870347
0.09092136
0.08500403
0.0822006
0.08040112
0.07839178
0.07349364
0.05226512
0.04079881
0.03372453
0.02893815
0.02556422
0.02319474
0.02161606
0.02066128
0.02010678
0.01964029
0.01897392
0.01799928
0.01743331
0.01841181
0.02205338
0.02947987
0.04322648
0.07013509
0.07643137
0.07898769
0.08046533
0.08124754
0.08046301
0.06854435
0.09086856
0.08493789
0.0821511
0.08039936
0.07850268
0.07392146
0.05365803
0.04178846
0.03440147
0.02941126
0.02590768
0.02346394
0.0218612
0.02093376
0.02045584
0.02010428
0.01957953
0.01876805
0.01835995
0.01943749
0.02307284
0.03039793
0.04394961
0.07047072
0.07650435
0.0788965
0.08026782
0.08098989
0.08019931
0.06829226
0.09077501
0.08481844
0.08205033
0.0803587
0.07864133
0.07490671
0.06200706
0.04421342
0.03552119
0.03005991
0.02632519
0.02375852
0.02210572
0.02119199
0.02078409
0.02054475
0.02016267
0.01952158
0.01928468
0.02048105
0.0241294
0.03135694
0.04468416
0.07073888
0.07652395
0.07874116
0.07998523
0.08062306
0.07980975
0.06790802
0.09062091
0.08462838
0.08189021
0.08027319
0.07874588
0.07550887
0.06140336
0.04604716
0.03677453
0.03084458
0.02681772
0.02407683
0.02234047
0.02142236
0.02107632
0.02094595
0.02070613
0.02024247
0.02019131
0.02153567
0.02524012
0.0324044
0.04549048
0.07099123
0.07652765
0.07855623
0.07964282
0.08015109
0.07926114
0.06733697
0.09039158
0.08437918
0.08171237
0.08020523
0.07887711
0.07632403
0.06735667
0.04853275
0.03834333
0.03183531
0.02741455
0.02442489
0.02256063
0.02161628
0.02132251
0.02129607
0.02119348
0.02091187
0.02106205
0.02260016
0.02645241
0.03366828
0.04656148
0.07135581
0.07664524
0.07847191
0.07936122
0.07965919
0.07853328
0.06652348
0.09012759
0.08422139
0.08174666
0.08043716
0.0794052
0.07774142
0.07277564
0.05300656
0.04099785
0.03330134
0.02819181
0.02481911
0.02276887
0.02177437
0.02152112
0.02158869
0.02161347
0.02150949
0.02187556
0.02367694
0.02785876
0.03545316
0.04848907
0.07225307
0.0772728
0.07887947
0.07953404
0.0795209
0.07789104
0.06536513
0.09017125
0.08487827
0.08289787
0.08194521
0.08125404
0.08020107
0.07704699
0.06280468
0.04565863
0.03540031
0.02915504
0.02525474
0.02297109
0.02190541
0.02167271
0.02180972
0.0219391
0.02199912
0.02259244
0.02474543
0.02956852
0.03839382
0.05325262
0.0750621
0.07958071
0.08088864
0.08130447
0.08097759
0.07858136
0.06396425
0.09241404
0.08934428
0.08844658
0.08808092
0.08784307
0.08745418
0.08606498
0.07993373
0.05090447
0.03735636
0.02997863
0.02562494
0.02313954
0.02197415
0.02168612
0.02180111
0.02196864
0.02218476
0.02304628
0.02562501
0.03138434
0.04311409
0.06856775
0.08435078
0.08713801
0.08780344
0.08801121
0.08781956
0.08604143
0.07249449
0.09017261
0.08488073
0.08290081
0.08194492
0.08123262
0.08007329
0.07641943
0.06195249
0.04516166
0.0351474
0.02901576
0.02515196
0.02283629
0.02165778
0.02122948
0.02113447
0.0211192
0.02125936
0.022172
0.02488728
0.03063591
0.04125038
0.05976644
0.07624933
0.07984082
0.08096367
0.08133779
0.08099971
0.07859841
0.06397188
0.08594625
0.07603919
0.07141063
0.06884227
0.06687409
0.06442299
0.05996711
0.05095275
0.0409682
0.03348111
0.02828666
0.02481334
0.02267698
0.02158369
0.02118968
0.02108741
0.02100611
0.02096997
0.02160652
0.02388522
0.02871112
0.03680432
0.04817782
0.05866471
0.06344724
0.06543581
0.06585399
0.06437186
0.05834085
0.03663042
0.08531243
0.07381333
0.06781645
0.06422035
0.06140498
0.05816616
0.05323143
0.04511302
0.03765982
0.03179571
0.02745977
0.02442303
0.02248579
0.02144241
0.02099924
0.0207874
0.0205632
0.02034307
0.02075144
0.02264348
0.02668293
0.03320572
0.04202911
0.05153649
0.05655863
0.05888217
0.05948194
0.0580791
0.05247375
0.03370399
0.08545153
0.07353966
0.0669414
0.06276147
0.05936312
0.05545187
0.04958687
0.04202405
0.03559299
0.03055837
0.0267724
0.02406301
0.02228573
0.02127076
0.02075442
0.02040206
0.02000461
0.01958099
0.01977735
0.02138125
0.02494315
0.03073939
0.03883594
0.04847457
0.05384527
0.05655218
0.05760084
0.0568675
0.05248778
0.03549751
0.08567829
0.0737277
0.06689284
0.06239681
0.05860281
0.05414682
0.04726844
0.04016411
0.0342636
0.02967848
0.02622756
0.02373794
0.02207014
0.02105918
0.02045277
0.01994124
0.01934986
0.01870736
0.01871401
0.02013649
0.02348287
0.02904876
0.03708643
0.04713272
0.05294928
0.05608642
0.05761562
0.05749558
0.05394518
0.03735814
0.08585021
0.07394425
0.06701613
0.06233752
0.05825423
0.05336133
0.04573325
0.03885174
0.03330444
0.02901426
0.02578287
0.02343782
0.02183584
0.02080516
0.02009321
0.01940691
0.01860422
0.01773306
0.01757623
0.01890623
0.02220673
0.02778188
0.03598341
0.04646768
0.05273911
0.056281
0.05820364
0.05849361
0.05536156
0.03869015
0.08595725
0.07409329
0.06711934
0.06232338
0.05803911
0.05286732
0.04487485
0.03800698
0.03262319
0.02850547
0.02541239
0.02315796
0.02158797
0.02051734
0.01968532
0.01880932
0.01777954
0.01667494
0.0163834
0.01768919
0.0210405
0.02672117
0.03513257
0.04599832
0.05269286
0.05659074
0.05881571
0.05936548
0.05643544
0.03958096
0.08601617
0.07417434
0.06716566
0.06227867
0.05783652
0.05247459
0.04431078
0.0374273
0.03212235
0.02810494
0.02509824
0.02289897
0.02133785
0.02021219
0.0192473
0.01816699
0.01689596
0.01555676
0.01516109
0.01649297
0.01994455
0.02575769
0.03435972
0.04552114
0.05260227
0.05681292
0.05927565
0.05999892
0.05717361
0.04015721
0.08604443
0.07420685
0.06716014
0.06217739
0.05755111
0.0519712
0.04375363
0.03692109
0.0317019
0.02776827
0.02482716
0.02266509
0.02109978
0.01990995
0.01880312
0.01750671
0.01598338
0.01441434
0.01394374
0.01533281
0.01890195
0.02484224
0.03359267
0.04493338
0.05240375
0.05689744
0.05955643
0.06040629
0.05764352
0.04051386
0.08605491
0.07420955
0.0671169
0.06201109
0.05710738
0.0510705
0.04301283
0.03638466
0.03131051
0.02747363
0.02459401
0.02246141
0.02088627
0.01963005
0.01838036
0.01686634
0.01508927
0.01330602
0.01277958
0.01423038
0.01790697
0.02395354
0.03281923
0.04429812
0.05210507
0.05685414
0.05968185
0.06063197
0.05791347
0.04071616
0.08605582
0.07419762
0.06706255
0.06184973
0.05669866
0.05018983
0.04234704
0.03591799
0.03097642
0.02722553
0.02439876
0.0222901
0.02070456
0.01938844
0.01801079
0.0163011
0.0142918
0.01232083
0.01173368
0.01321464
0.01695889
0.02307163
0.03201437
0.04364228
0.05171888
0.05670752
0.0596882
0.06072311
0.05804023
0.0408108
0.08605237
0.07418098
0.06701379
0.06173329
0.05646117
0.04976609
0.04194504
0.03559074
0.03072315
0.02703024
0.02424225
0.02215162
0.02055833
0.01919835
0.01772909
0.01587947
0.0136945
0.01156359
0.01088326
0.01232537
0.01606593
0.02216801
0.03108696
0.04278561
0.05120751
0.05647513
0.05961087
0.06072239
0.05807008
0.04083295
0.08604788
0.07416534
0.0669749
0.06165018
0.0562936
0.04934328
0.0416517
0.03535982
0.03054129
0.02688701
0.02412511
0.02204674
0.02045029
0.01906959
0.01756105
0.01565375
0.01338263
0.01112656
0.01030552
0.01161781
0.01526284
0.0212395
0.0299223
0.04142077
0.05049472
0.0561713
0.05948506
0.06066914
0.05804326
0.04081237
0.08604439
0.07415429
0.06694902
0.06159594
0.05618987
0.0491369
0.04147387
0.03521697
0.0304277
0.0267955
0.0240478
0.02197633
0.02038253
0.01900767
0.01751924
0.01564905
0.01340269
0.01106982
0.01006705
0.01116216
0.01463263
0.02041488
0.02871595
0.03954767
0.0497188
0.05586924
0.05935475
0.06060088
0.05799615
0.04077592
0.086043
0.07414993
0.06693817
0.06156724
0.05610504
0.04881284
0.0413215
0.03514147
0.0303779
0.02675514
0.02401109
0.02194207
0.02035738
0.01901473
0.01760477
0.01586596
0.01375832
0.01141397
0.01021256
0.01103123
0.01428157
0.01989455
0.02798704
0.03869176
0.04924315
0.05566907
0.05926367
0.06055021
0.05795972
0.04074814
0.08604414
0.07415297
0.06694439
0.06157835
0.05612105
0.04883151
0.04134758
0.03516834
0.03039876
0.02676785
0.02401701
0.02194684
0.02037688
0.01908624
0.01779398
0.01624444
0.01434374
0.01209729
0.01073157
0.01126357
0.01427554
0.01974872
0.02773609
0.0382332
0.04909072
0.05560271
0.05923415
0.06053656
0.05795317
0.04074587
0.08604766
0.07416306
0.06696693
0.06162814
0.05623755
0.04919289
0.04155199
0.03529563
0.03048802
0.02683235
0.02406554
0.021991
0.02043867
0.01920887
0.01804681
0.01669725
0.01501296
0.01292944
0.01149048
0.01180731
0.0146125
0.01998551
0.02798471
0.03862749
0.049241
0.05566281
0.0592661
0.06055954
0.05797517
0.04076688
0.08605299
0.074179
0.06700365
0.06170706
0.05639222
0.04949558
0.04181588
0.03549756
0.03063892
0.0269462
0.02415569
0.02207354
0.02053926
0.01937122
0.01833387
0.01716834
0.01568571
0.01378427
0.01235098
0.01254169
0.01520883
0.02054502
0.02861964
0.03932534
0.04961043
0.05582863
0.05934214
0.06060094
0.05800643
0.04079416
0.08605888
0.07419836
0.06705102
0.06181287
0.05661918
0.05003876
0.04220359
0.03578263
0.03085166
0.02710863
0.0242863
0.02219249
0.02067486
0.01956608
0.01864341
0.01764144
0.01633972
0.01461533
0.01324366
0.01338934
0.01599215
0.02136806
0.02964754
0.04063591
0.05021088
0.05607097
0.05943246
0.06063167
0.05801764
0.04080451
0.08606325
0.07421786
0.06710938
0.06196708
0.05698218
0.05064329
0.04276412
0.03618453
0.03113794
0.02732147
0.02445583
0.02234505
0.02084169
0.019789
0.01897202
0.01811706
0.01697884
0.01542032
0.01414512
0.01430545
0.01689653
0.02235882
0.03096596
0.04249217
0.05100738
0.05633943
0.05949695
0.06061615
0.05797418
0.04077239
0.08606283
0.07423114
0.06716713
0.06213931
0.05743294
0.05175362
0.04350751
0.03667962
0.03148638
0.02758065
0.02466224
0.02252897
0.02103667
0.02003675
0.01931872
0.01859947
0.01761332
0.01621217
0.01505635
0.01527084
0.01786203
0.02332918
0.03197741
0.04346124
0.05151097
0.05650669
0.05948415
0.06051452
0.05783771
0.04067082
0.08605246
0.07422767
0.06720304
0.06226719
0.05773874
0.05228456
0.04404466
0.03714158
0.03185932
0.02787719
0.02490408
0.022743
0.02125683
0.02030525
0.01968061
0.01908971
0.01824937
0.01700176
0.01598124
0.01627536
0.01886886
0.02428248
0.03283198
0.04411264
0.05184009
0.05655846
0.05935673
0.06028411
0.05756288
0.04046553
0.08602372
0.07419341
0.06720226
0.06234613
0.05795691
0.05265204
0.04452407
0.03762071
0.03227635
0.02821936
0.02518345
0.02298459
0.02149604
0.02058636
0.02004977
0.01958234
0.01888535
0.01779226
0.01692039
0.01731393
0.01991628
0.02525216
0.03364825
0.04466901
0.05205872
0.05648642
0.05908098
0.05987829
0.05709335
0.04011023
0.08596369
0.07410975
0.06715105
0.06238195
0.05814589
0.05305014
0.04520297
0.03827517
0.03281513
0.02863931
0.02550887
0.02324998
0.02174403
0.02086681
0.02041247
0.02006508
0.01951149
0.01857797
0.01786847
0.01838192
0.02100931
0.02626695
0.03448926
0.04524305
0.05219432
0.05628794
0.05863386
0.05925225
0.05636034
0.03953914
0.08585502
0.07395728
0.06704302
0.06239284
0.05837641
0.05365746
0.04667242
0.03936338
0.03358453
0.02918197
0.02589412
0.02353619
0.02198884
0.02113052
0.02075159
0.02052135
0.02011208
0.01934559
0.01881369
0.01947327
0.02215801
0.02736018
0.03539879
0.04582136
0.05229679
0.05601
0.0580405
0.05839214
0.05529514
0.03865616
0.08568128
0.07373687
0.06691386
0.06244444
0.05871644
0.05442111
0.04802352
0.04065576
0.03455802
0.02986137
0.02634948
0.02384191
0.0222204
0.02136311
0.02105133
0.02093476
0.02066942
0.0200772
0.01973958
0.02058182
0.02338495
0.02860135
0.03649713
0.04655231
0.05255519
0.05584809
0.05747358
0.05740789
0.05388875
0.03733328
0.0854528
0.07354512
0.06695645
0.06279891
0.05945258
0.05564859
0.04998494
0.04239982
0.03587028
0.03074721
0.02690189
0.02417109
0.02243306
0.02155591
0.02130174
0.0212935
0.02116727
0.0207539
0.02062757
0.02170331
0.02473373
0.03013135
0.03806718
0.04786054
0.0534682
0.05633911
0.05747897
0.05679376
0.05244168
0.0354813
0.08531233
0.07381567
0.06782643
0.06425123
0.06149061
0.05837468
0.05363789
0.04556645
0.03799144
0.03201124
0.02760031
0.02453413
0.02262949
0.021711
0.02150296
0.02159288
0.02159507
0.0213576
0.02145659
0.02283121
0.02626559
0.03219413
0.04069851
0.05072933
0.05615576
0.05868682
0.0593804
0.05802009
0.05243768
0.03369481
0.08594528
0.07603887
0.07141454
0.06886044
0.06693508
0.06459553
0.06037279
0.05152723
0.04137769
0.03372797
0.02843705
0.02492581
0.02281715
0.02183912
0.021658
0.02182193
0.02192987
0.02185531
0.02218726
0.0239266
0.02799664
0.03507686
0.04547964
0.05754007
0.0630336
0.06527745
0.06578388
0.06433396
0.05831805
0.03662702
0.09017125
0.08487833
0.08289805
0.08194542
0.08125297
0.08018203
0.07683952
0.06092814
0.0453273
0.03536767
0.02916257
0.02526305
0.02297415
0.02190477
0.0216742
0.02182147
0.02196874
0.02204781
0.02264816
0.02479308
0.02960027
0.03841364
0.05326883
0.07507833
0.07959648
0.08090337
0.08131794
0.08099002
0.0785932
0.06397269
0.09012887
0.08422348
0.08174855
0.08043253
0.07935469
0.07728234
0.06730045
0.05189132
0.04058143
0.03310054
0.02808124
0.0247311
0.02263773
0.02151952
0.02105995
0.02088937
0.02077662
0.02077388
0.02146003
0.02372554
0.02847804
0.03675218
0.05034977
0.07280061
0.07748829
0.07898658
0.07960123
0.07957049
0.07792851
0.06538111
0.08531241
0.07381368
0.06781789
0.06422451
0.06141433
0.05815649
0.05295433
0.04511088
0.03769435
0.03182648
0.0274832
0.02443752
0.0224911
0.02144304
0.02100726
0.02082103
0.02063982
0.02046407
0.02087875
0.02273345
0.02670685
0.03314379
0.04191026
0.05151119
0.05658817
0.05892794
0.05952995
0.05812621
0.05251862
0.03373279
0.0843714
0.07074513
0.06281971
0.05778485
0.0539607
0.05025395
0.0458883
0.04045804
0.03507764
0.03045216
0.02679476
0.02410667
0.02231838
0.02129388
0.0207881
0.02047655
0.02014663
0.01979367
0.01999319
0.02148045
0.02471141
0.02969341
0.03590868
0.04209455
0.04633081
0.04850184
0.04877801
0.04661848
0.04002294
0.02317895
0.0843886
0.07013314
0.06131613
0.05546758
0.05101101
0.04694811
0.0426147
0.03787955
0.03334431
0.0294001
0.02620613
0.02379561
0.02213576
0.02111651
0.02051825
0.02005178
0.0195439
0.01899415
0.01898803
0.02018198
0.02291007
0.02708688
0.03225171
0.03750142
0.04141217
0.04358095
0.04397867
0.04209292
0.03625168
0.02151659
0.08456918
0.07020683
0.06102968
0.05475403
0.04989241
0.04552045
0.04100083
0.03644369
0.0322471
0.02864721
0.02573025
0.0235048
0.02193073
0.02089637
0.02019066
0.01955143
0.01884475
0.01808239
0.01788648
0.01887762
0.02133612
0.02517146
0.03002425
0.03517051
0.03922982
0.04171122
0.04257145
0.04136143
0.03650037
0.02258018
0.08472201
0.0703882
0.06107417
0.05457665
0.04945306
0.04483753
0.04010101
0.03556277
0.03151282
0.02809376
0.02533844
0.02322648
0.02169843
0.02062791
0.01980015
0.01897196
0.01804797
0.01706154
0.01669919
0.01757288
0.01993537
0.02370182
0.02858402
0.033943
0.03837676
0.04130717
0.0426873
0.04208428
0.03787022
0.02390521
0.0848194
0.07052551
0.06115323
0.05453081
0.04923338
0.04445263
0.03956146
0.03498841
0.03099474
0.02766931
0.025006
0.02295845
0.02144541
0.0203199
0.01935488
0.01832015
0.01716085
0.0159436
0.0154448
0.01627461
0.0186554
0.02249201
0.02753605
0.03319327
0.03805264
0.04142714
0.04324789
0.04307192
0.03920282
0.0249132
0.08487199
0.07060034
0.06119197
0.05448608
0.04906782
0.04417131
0.03918017
0.03457166
0.03060076
0.02732675
0.02471707
0.02270417
0.02118553
0.01999031
0.01887278
0.01761181
0.0161988
0.0147494
0.01415013
0.01499537
0.0174611
0.02142427
0.02665567
0.03258226
0.03784911
0.04161273
0.04377824
0.04388853
0.0401976
0.02558674
0.08489505
0.07062732
0.06118516
0.054408
0.0488924
0.04388632
0.03883243
0.03421365
0.03026859
0.02703515
0.02446352
0.02247075
0.02093539
0.01966118
0.01837807
0.01687142
0.01518794
0.01351407
0.01285244
0.01375265
0.01633149
0.02043203
0.02583938
0.03200782
0.0376013
0.04169197
0.04412775
0.04443759
0.04084804
0.02600369
0.08490079
0.07062454
0.06114581
0.05429543
0.048676
0.04353598
0.03845992
0.0338715
0.02997187
0.02678223
0.02424416
0.02226563
0.02070963
0.01935414
0.01790021
0.0161379
0.01417761
0.01230219
0.01160642
0.01256971
0.0152545
0.01947565
0.02503129
0.03140053
0.03725971
0.04162817
0.0442828
0.04474145
0.0412203
0.02623537
0.08489764
0.07060745
0.06109479
0.05418144
0.04847472
0.04321878
0.03813188
0.03357636
0.02971997
0.02656952
0.02406
0.0220926
0.02051717
0.01908775
0.01747739
0.0154795
0.01326375
0.01122301
0.01048869
0.0114792
0.0142282
0.01853336
0.02420251
0.03074073
0.03682586
0.04143657
0.04427695
0.04485403
0.04138641
0.02633621
0.08489103
0.07058642
0.06104668
0.05408826
0.04832545
0.04300282
0.03789474
0.03335163
0.02952223
0.02639972
0.02391133
0.02195197
0.02036159
0.01887759
0.01715549
0.01499064
0.0125853
0.01040472
0.009588929
0.01052767
0.01326882
0.0176015
0.02333056
0.02999379
0.03630089
0.04114825
0.04415674
0.04483318
0.0414105
0.02634782
0.0848843
0.07056755
0.06100777
0.0540183
0.04821812
0.04284642
0.03772611
0.03318978
0.02937751
0.02627329
0.02379823
0.02184338
0.02024474
0.01873502
0.01696731
0.01473849
0.01224668
0.009950062
0.008991601
0.009779241
0.01242432
0.01671419
0.02242535
0.02913914
0.03569718
0.04080288
0.04397479
0.04473707
0.04135198
0.02630674
0.08487943
0.07055453
0.06098205
0.05397328
0.04815079
0.04274986
0.03762115
0.03308889
0.02928601
0.02619091
0.02372136
0.0217676
0.02016881
0.0186667
0.01692767
0.01475116
0.01229809
0.009920968
0.008768534
0.00931537
0.01178249
0.01597428
0.0216173
0.02831684
0.03512422
0.04047614
0.04379099
0.04462266
0.0412668
0.0262475
0.0848775
0.0705494
0.06097181
0.05395441
0.04811933
0.0426901
0.03756989
0.03304609
0.02924745
0.0261534
0.02368243
0.02172745
0.02013737
0.01867611
0.01704024
0.01503451
0.01274817
0.01034305
0.008968834
0.009218341
0.01145113
0.015518
0.02109613
0.02779295
0.03474256
0.04025426
0.04366311
0.04454041
0.04120419
0.02620422
0.08487895
0.07055294
0.06097823
0.05396487
0.04813379
0.04270833
0.03759109
0.03306642
0.02926313
0.02616233
0.0236846
0.02172782
0.02015477
0.01875868
0.01727461
0.01551005
0.01346504
0.01115108
0.009578646
0.009527446
0.01150813
0.015439
0.02095591
0.0276336
0.03462458
0.0401841
0.04362613
0.04452195
0.04119598
0.0262026
0.08488363
0.0705648
0.0610006
0.05400357
0.04819291
0.04280319
0.03768286
0.03314759
0.0293312
0.02621708
0.02372881
0.02177047
0.02021942
0.01889764
0.01757509
0.01605429
0.01425398
0.01210416
0.01044253
0.01017522
0.0119412
0.01574366
0.02119997
0.02784265
0.0347618
0.04026602
0.04368096
0.04456635
0.0412394
0.02623845
0.08489092
0.07058365
0.06103696
0.05406704
0.04828862
0.04294166
0.03783037
0.0332838
0.02944871
0.02631599
0.02381419
0.02185429
0.0203273
0.01907889
0.0179034
0.0165945
0.01501338
0.01304876
0.01139057
0.01100593
0.01262727
0.01633697
0.02175134
0.02834055
0.03511168
0.04046988
0.04379893
0.04464374
0.04130268
0.02628662
0.08489956
0.07060706
0.06108411
0.05415193
0.04842126
0.04313837
0.03803644
0.03347406
0.02961428
0.02645768
0.02393905
0.02197653
0.02047344
0.01929403
0.01824837
0.01711966
0.01572873
0.01394151
0.0123487
0.01192971
0.01347334
0.01712971
0.02252984
0.02907102
0.03561142
0.04074378
0.04393344
0.0447079
0.04133899
0.02631481
0.0849075
0.07063145
0.06113947
0.05426189
0.04860448
0.04341422
0.0383227
0.03372923
0.02983108
0.02664172
0.02410122
0.02213382
0.02065324
0.01953819
0.01860864
0.017637
0.01641408
0.01479021
0.01329805
0.01290313
0.01441797
0.01804388
0.02344267
0.02994468
0.03618166
0.04102182
0.0440285
0.04470495
0.04129554
0.02629101
0.08491131
0.07065014
0.06119346
0.05438162
0.04881752
0.04375814
0.03866938
0.0340375
0.03009405
0.02686565
0.02429853
0.02232314
0.02086273
0.01980784
0.01898489
0.01815546
0.0170865
0.01561533
0.01424472
0.01391295
0.01542518
0.01900265
0.02432482
0.03068215
0.03665131
0.04121431
0.04402131
0.04457699
0.04111544
0.0261815
0.08490552
0.07065228
0.06122944
0.05448169
0.04900268
0.04404032
0.03899526
0.03436078
0.03038877
0.02712497
0.02452888
0.02254151
0.02109731
0.02009811
0.01937493
0.01867864
0.01775609
0.01643269
0.01519802
0.01495612
0.01648065
0.01998947
0.02517658
0.03132185
0.03701262
0.04128326
0.04386265
0.04426624
0.04073584
0.02594578
0.08488176
0.07062343
0.06123189
0.05454994
0.04916213
0.04429119
0.03931861
0.03470908
0.03072126
0.02742248
0.02479144
0.02278431
0.02134927
0.0203999
0.01977089
0.01920221
0.01842307
0.01724811
0.01616242
0.01603284
0.01758537
0.02101854
0.02603688
0.03192104
0.03728518
0.04121898
0.04351976
0.04371907
0.04008528
0.0255299
0.08482789
0.07054579
0.06118871
0.05458868
0.04932362
0.04457061
0.03971593
0.03514268
0.03112839
0.0277755
0.02508954
0.02304551
0.02160687
0.02069889
0.02015864
0.01971412
0.01907816
0.01805667
0.01713424
0.01714176
0.01874884
0.02212159
0.02696357
0.03255451
0.03752788
0.04106059
0.04300566
0.04291203
0.03909678
0.02486189
0.08472877
0.07040494
0.06110491
0.05463002
0.04954246
0.04497362
0.04032332
0.03576447
0.03167389
0.02821619
0.02543267
0.02331977
0.02185628
0.02097762
0.02052022
0.02019739
0.01970541
0.01884459
0.01810146
0.01827809
0.01998787
0.02335354
0.02805548
0.03335411
0.03790135
0.04097527
0.04246727
0.04193878
0.03777461
0.02386238
0.084574
0.07021966
0.06105519
0.0548017
0.04997736
0.0456561
0.04122347
0.03665855
0.03242441
0.02878366
0.02583508
0.02360411
0.02208511
0.02121999
0.02083889
0.02063527
0.02028701
0.01959338
0.0190463
0.01943465
0.02132988
0.02481011
0.02950611
0.03461768
0.03879625
0.04141241
0.04237436
0.04123136
0.03641603
0.0225466
0.08439157
0.07014232
0.06133684
0.05550995
0.05109085
0.04707968
0.04281841
0.03809959
0.03353746
0.02955172
0.0263217
0.02390018
0.02228645
0.02141706
0.02110511
0.02101671
0.02080851
0.02028499
0.01994971
0.02060436
0.02281568
0.02664492
0.03166414
0.03693522
0.04099697
0.04330789
0.04380337
0.04197838
0.03617829
0.02149112
0.08437276
0.07075115
0.06283642
0.05782447
0.05404579
0.05041495
0.04616593
0.04074892
0.03531977
0.03063132
0.02692343
0.02421544
0.02246472
0.02157391
0.02132239
0.0213409
0.02126292
0.02090635
0.02079437
0.02177766
0.02448859
0.02906917
0.03511606
0.04144471
0.04591512
0.04825593
0.04863077
0.04652527
0.03996366
0.0231609
0.08531235
0.07381614
0.06782807
0.06425507
0.06149772
0.05838424
0.05363709
0.04557253
0.03801713
0.03204098
0.02762486
0.02454901
0.0226332
0.02170618
0.02149796
0.0216011
0.02163163
0.02143063
0.02154732
0.02291277
0.02632347
0.03223451
0.04073692
0.05078452
0.0562141
0.05874116
0.05943061