/*--------------------------------*- C++ -*----------------------------------*\
| =========                 |                                                 |
| \\      /  F ield         | OpenFOAM: The Open Source CFD Toolbox           |
|  \\    /   O peration     | Version:  2506                                  |
|   \\  /    A nd           | Website:  www.openfoam.com                      |
|    \\/     M anipulation  |                                                 |
\*---------------------------------------------------------------------------*/
FoamFile
{
    version     2.0;
    format      ascii;
    arch        "LSB;label=32;scalar=64";
    class       volScalarField;
    location    "200/airRegion";
    object      nut;
}
// * * * * * * * * * * * * * * * * * * * * * * * * * * * * * * * * * * * * * //

dimensions      [0 2 -1 0 0 0 0];

internalField   nonuniform List<scalar> 
85779
(
0.09218049
0.0925503
0.09234616
0.09210583
0.09182924
0.09131051
0.08988358
0.08523062
0.07278516
0.06804764
0.06684362
0.06787349
0.0708408
0.07537
0.08037615
0.08399325
0.08380077
0.07763598
0.06929445
0.06366847
0.06319957
0.06888282
0.08412405
0.08940952
0.09084826
0.0911455
0.09073507
0.08818117
0.07420144
0.02015461
0.09228571
0.09278046
0.09239826
0.09185082
0.09118116
0.09001608
0.08717986
0.08006057
0.07320265
0.06961745
0.06845897
0.06923967
0.07185347
0.07597171
0.08056893
0.08388939
0.08365032
0.07769985
0.06958798
0.06415264
0.0636731
0.06818991
0.07724112
0.08588714
0.0886772
0.0892381
0.08843091
0.08456365
0.06887002
0.01893169
0.09210853
0.09233434
0.09173183
0.09096115
0.09002567
0.08841285
0.08467503
0.07744921
0.07320489
0.07081128
0.06995773
0.07063255
0.07288675
0.0764541
0.08041678
0.08321327
0.08279712
0.07704497
0.06914499
0.06374637
0.06292692
0.06633918
0.07324236
0.08313953
0.08656301
0.08727251
0.08651654
0.08294449
0.06862947
0.01913815
0.09206298
0.09209805
0.09132109
0.09038525
0.08922681
0.08709235
0.08216958
0.07559311
0.07257576
0.07102545
0.07061057
0.07139016
0.07344739
0.07654643
0.07986934
0.08206405
0.08136345
0.07568306
0.06783249
0.06233918
0.0611983
0.06394391
0.07019591
0.08153284
0.08531037
0.08615677
0.08561099
0.08257449
0.06942223
0.01930748
0.09207857
0.09202805
0.09114831
0.0901009
0.08875738
0.08599483
0.07936237
0.07443003
0.07188346
0.07077382
0.07068258
0.07158895
0.07352387
0.07622728
0.07893471
0.08048032
0.07939677
0.07366933
0.06575102
0.06015439
0.05891498
0.06157916
0.06809523
0.0806843
0.08469473
0.08567049
0.08532842
0.08269701
0.07022988
0.01942581
0.09210478
0.09202071
0.09108427
0.08996091
0.08846952
0.08527065
0.07796592
0.07384638
0.0715987
0.07061308
0.07060407
0.0715131
0.07328982
0.07560022
0.07767751
0.07850937
0.07694806
0.07110724
0.06312107
0.0575796
0.05657907
0.05960575
0.06670757
0.08021999
0.08441002
0.0854994
0.08530903
0.08291108
0.07063071
0.01950875
0.09212518
0.09202708
0.09105759
0.08988336
0.08829468
0.08484785
0.0769437
0.07316201
0.0712262
0.07038779
0.07042457
0.0712907
0.07288079
0.0747762
0.07617724
0.07621063
0.07408144
0.06810428
0.06012308
0.05485055
0.05437001
0.05797994
0.06570634
0.07992316
0.08426882
0.08545539
0.0853728
0.08311402
0.07090292
0.01956449
0.09213742
0.09203106
0.09103865
0.08982405
0.08815651
0.08454829
0.07624292
0.07252259
0.07077207
0.07007279
0.07017108
0.07100069
0.0723973
0.07385155
0.0745168
0.07366218
0.07088893
0.06477501
0.05688477
0.0520649
0.05228114
0.05655643
0.06487583
0.07968843
0.08417763
0.08544814
0.08544319
0.08327075
0.07108975
0.01960102
0.09214329
0.09202926
0.09101537
0.08975261
0.08797038
0.08415375
0.07569925
0.07209309
0.07047496
0.0698633
0.06998748
0.07075414
0.07193346
0.07291525
0.0727926
0.07098373
0.06752195
0.06128108
0.05353659
0.04927911
0.05027081
0.05522358
0.06409978
0.07946155
0.08409246
0.08543919
0.08549304
0.08337643
0.07121013
0.019624
0.09214508
0.09202251
0.09098372
0.08964829
0.08765525
0.08348459
0.07545144
0.07209552
0.07051543
0.06987953
0.06994914
0.07060445
0.07154285
0.07204427
0.07113097
0.06837
0.06423136
0.05787388
0.05026618
0.04657278
0.04832009
0.05391266
0.06331211
0.07920425
0.08399011
0.08541344
0.08551609
0.08343758
0.07128027
0.0196373
0.0921446
0.09201398
0.090953
0.08954561
0.08730267
0.08254652
0.07529458
0.07214396
0.07059465
0.06993879
0.06995686
0.07050855
0.07123096
0.07130888
0.06970107
0.06610726
0.06137748
0.05490421
0.0473442
0.04408277
0.04645893
0.05258842
0.0624397
0.07885028
0.08384298
0.08536215
0.08551343
0.08346373
0.07131401
0.01964382
0.09214311
0.09200614
0.09093032
0.08948307
0.0871143
0.08203207
0.07496642
0.07198262
0.07053803
0.06992761
0.06994048
0.07043074
0.07100208
0.07078072
0.06868682
0.0645096
0.059348
0.05276079
0.04510409
0.04201778
0.04480321
0.05128293
0.06137342
0.07823672
0.08358704
0.08527143
0.08548745
0.08346439
0.07132303
0.01964576
0.09214148
0.0919998
0.09091394
0.08943916
0.08688993
0.08093223
0.07488989
0.0719017
0.07049562
0.0699139
0.06992511
0.07038001
0.07087265
0.07051274
0.0682114
0.06378971
0.05842946
0.05176939
0.0438711
0.04063031
0.04358015
0.05022143
0.06013526
0.07677606
0.08307753
0.08512154
0.08544195
0.083449
0.07131747
0.01964497
0.09214027
0.09199562
0.09090346
0.08941001
0.08678453
0.08055466
0.07473822
0.07182826
0.0704604
0.06989711
0.06991007
0.07035731
0.07085141
0.07053336
0.0683393
0.0640643
0.05879426
0.05212975
0.04385258
0.0400522
0.04285068
0.04951755
0.05903963
0.07241386
0.08218995
0.08493542
0.08539124
0.08342856
0.07130652
0.01964312
0.09213979
0.09199389
0.09089766
0.08937989
0.08662418
0.08027317
0.07489732
0.07191839
0.07047592
0.06988448
0.06989346
0.07036097
0.07094121
0.07085709
0.06911113
0.0654067
0.06052526
0.05389754
0.04511727
0.04033748
0.04256729
0.04901296
0.05820256
0.07219084
0.0818492
0.08482609
0.08535683
0.08341333
0.07129774
0.01964164
0.09214016
0.09199488
0.09089953
0.08938296
0.08662888
0.08028924
0.07492876
0.07193706
0.07046924
0.06986202
0.06987495
0.07038908
0.07112689
0.0714344
0.07041242
0.06761822
0.06337994
0.05685388
0.04755888
0.0415521
0.04287216
0.04892837
0.05794961
0.07010295
0.08155944
0.08478189
0.08534472
0.08340868
0.07129567
0.01964148
0.09214132
0.09199848
0.09090905
0.08941997
0.08680376
0.08061897
0.07484826
0.07189198
0.07044473
0.0698359
0.06986054
0.07043829
0.07137157
0.0721422
0.07195689
0.07021751
0.06675593
0.06039673
0.05064041
0.04348024
0.04377446
0.04932494
0.05818622
0.07083039
0.08175462
0.08481862
0.08535491
0.08341448
0.07130009
0.01964254
0.09214307
0.0920043
0.09092409
0.08946238
0.08694547
0.08105797
0.07501374
0.07193906
0.07045049
0.06982912
0.06986616
0.07051241
0.07164773
0.07287875
0.07350466
0.07279348
0.07013829
0.06400209
0.05386455
0.04572745
0.04504566
0.05012584
0.05897855
0.07185697
0.08205016
0.08490239
0.08538186
0.08342616
0.0713065
0.01964383
0.09214507
0.09201188
0.09094501
0.08952509
0.08723044
0.08224753
0.07516109
0.0720337
0.07050207
0.06985493
0.06989726
0.07060968
0.07193879
0.07359369
0.07494503
0.07515279
0.07325126
0.06735464
0.05692958
0.04803413
0.04649369
0.05113613
0.06011867
0.07483677
0.08266149
0.08504334
0.08541945
0.08343596
0.07130781
0.01964399
0.09214678
0.09202085
0.09097344
0.08961418
0.08743549
0.08221709
0.0754514
0.0720342
0.0704534
0.06982341
0.06990643
0.07070698
0.07223197
0.07427508
0.07626063
0.07726054
0.07601941
0.07033882
0.05972086
0.05028391
0.04799589
0.05214585
0.06132627
0.07779215
0.08343895
0.08521902
0.08545547
0.08343363
0.07129531
0.01964141
0.0921474
0.09202975
0.09100553
0.08972441
0.08789231
0.08389218
0.07547426
0.0719084
0.07034622
0.06976141
0.06990723
0.07081238
0.07253483
0.07493592
0.07747726
0.07915316
0.07846897
0.07296329
0.06227829
0.05259187
0.04980686
0.05354108
0.06254235
0.07874197
0.08377597
0.08531331
0.08546491
0.08340651
0.07125913
0.01963444
0.09214565
0.09203559
0.09103065
0.08979568
0.08809322
0.08441303
0.07592912
0.07219367
0.07050578
0.0698609
0.07000814
0.07098391
0.0728788
0.07560096
0.07862973
0.08088106
0.08065265
0.07526786
0.06461611
0.05488707
0.05173145
0.05497697
0.06351759
0.07915867
0.08393725
0.08535523
0.08544472
0.08334469
0.07118781
0.01962097
0.09213966
0.09203647
0.09104956
0.08984872
0.08821661
0.08467844
0.07649681
0.07271088
0.07088541
0.07012893
0.07022738
0.07123485
0.07327085
0.076278
0.07973691
0.08247878
0.08261275
0.07729109
0.06674626
0.05711403
0.05367418
0.05640277
0.06439509
0.07946072
0.08404778
0.08537164
0.08539655
0.08323909
0.07106764
0.01959811
0.09212711
0.09203175
0.09106678
0.08990408
0.08835169
0.08503553
0.0774489
0.07332739
0.07126887
0.07039343
0.07045156
0.07149347
0.0736645
0.07693859
0.08078811
0.08395282
0.08436713
0.07905806
0.06868581
0.05926626
0.05563746
0.05787224
0.06528858
0.07973252
0.08415323
0.08538396
0.08532797
0.08308334
0.07088226
0.01956195
0.09210628
0.09202469
0.0910931
0.08998549
0.08856581
0.08579918
0.07946234
0.07336905
0.07125879
0.07043713
0.07054703
0.07166288
0.07398255
0.07752311
0.08174311
0.085281
0.08590643
0.0805722
0.07044
0.0613538
0.05766707
0.05947722
0.06629856
0.0800433
0.08430199
0.08543171
0.08526622
0.08288195
0.0706119
0.01950677
0.0920796
0.09203128
0.09115632
0.09012437
0.08884611
0.08637587
0.08028816
0.07439249
0.07171966
0.07065653
0.07064334
0.07173086
0.07415475
0.07795348
0.08253873
0.08641813
0.08719589
0.08180889
0.07197419
0.06335148
0.0597994
0.06133794
0.06757643
0.08048231
0.08458245
0.0856036
0.08528721
0.0826691
0.07020812
0.01942454
0.0920636
0.09210058
0.09132802
0.09040471
0.08928582
0.0872772
0.08265601
0.07590532
0.07267956
0.07104091
0.0706302
0.07154723
0.07403801
0.0781158
0.08309286
0.08730415
0.08817482
0.08271842
0.07318516
0.06513077
0.06197022
0.06355046
0.06936488
0.08121883
0.0851694
0.08608479
0.08557053
0.08254848
0.06940236
0.01930683
0.09210884
0.09233629
0.09173799
0.09097912
0.09007569
0.08854268
0.0849408
0.07775112
0.07327188
0.0708023
0.06996607
0.07077828
0.07343773
0.0778965
0.08333248
0.08788398
0.08879931
0.08321217
0.07389382
0.0663952
0.06384762
0.06597297
0.07194392
0.08257091
0.08636046
0.08719002
0.0864771
0.08292152
0.06861416
0.01913799
0.09228582
0.09278167
0.09240253
0.09186386
0.0912191
0.09012593
0.08749557
0.08058506
0.07322496
0.06959721
0.06847295
0.06938565
0.07238005
0.07732184
0.08325105
0.08812218
0.08903152
0.08322795
0.07393396
0.06674658
0.06471902
0.06779649
0.07526403
0.08497225
0.08841514
0.08915435
0.08839811
0.08454662
0.06885946
0.01893181
0.09218045
0.09255055
0.09234746
0.09211055
0.09184447
0.09135568
0.08999627
0.08541919
0.07306624
0.06822247
0.06695643
0.0680631
0.07137245
0.076672
0.08291697
0.08795619
0.0887997
0.0827754
0.07338753
0.06616411
0.06408283
0.06784147
0.07998167
0.08846971
0.09065399
0.09109962
0.09072135
0.08817517
0.07419787
0.02015467
0.09228572
0.09278047
0.09239837
0.09185142
0.09118184
0.09000527
0.08711503
0.08024787
0.07310246
0.06958532
0.06845731
0.06923386
0.07184143
0.07598056
0.08064926
0.08408951
0.08398413
0.07810911
0.0699618
0.06442111
0.06381253
0.06814882
0.07743371
0.08593736
0.08867375
0.0892352
0.08843132
0.084568
0.06888001
0.01893286
0.091723
0.09309673
0.0934134
0.09278931
0.09152463
0.08940945
0.08567053
0.08020669
0.07496808
0.07164396
0.07022813
0.07063028
0.0728355
0.07654383
0.08079358
0.08392755
0.08376585
0.07811524
0.07020937
0.06486456
0.06436515
0.06829248
0.07519096
0.08170946
0.08500528
0.08551469
0.08317684
0.07543364
0.0548856
0.01432647
0.09096187
0.09181481
0.09225385
0.09171527
0.09032064
0.08797663
0.08419889
0.07982518
0.07590869
0.07316924
0.07183202
0.07202947
0.07382685
0.07696242
0.08056623
0.08316314
0.08281195
0.07738418
0.06973835
0.06448231
0.0637416
0.06687921
0.0723163
0.07782068
0.08094319
0.08126085
0.0784432
0.07019561
0.05049952
0.01374236
0.09064705
0.09090749
0.09095941
0.09017957
0.08858161
0.0860534
0.08247856
0.0787519
0.07568928
0.07356783
0.07254326
0.07277146
0.07433128
0.07697909
0.0799296
0.08190671
0.08125691
0.07593476
0.06839211
0.06305726
0.06197447
0.06444144
0.06906129
0.0742718
0.07744071
0.07793071
0.07551694
0.06822066
0.05018972
0.01410331
0.09056853
0.09052509
0.09023998
0.08916972
0.08731578
0.08449747
0.08094254
0.07753547
0.07494491
0.07326939
0.07255409
0.07289494
0.07432437
0.07657001
0.0788896
0.08019138
0.07914047
0.07381043
0.0662496
0.06079501
0.0595191
0.06174194
0.06626692
0.07181501
0.07529281
0.07618025
0.07441984
0.06817494
0.05128912
0.01446825
0.09056852
0.09040271
0.08992218
0.08864124
0.08657041
0.08346501
0.07984606
0.07666155
0.07430286
0.07284043
0.07228675
0.07268072
0.07397948
0.0758367
0.07750339
0.07805162
0.07649874
0.0710983
0.06350535
0.05805882
0.056904
0.05933285
0.06422173
0.07034385
0.07421972
0.07552721
0.07432789
0.06881603
0.05247818
0.01472403
0.09058354
0.09037094
0.0897861
0.08837282
0.08614918
0.0828151
0.07900884
0.07592214
0.07372436
0.07239621
0.07192754
0.0723209
0.07345827
0.07489527
0.07584211
0.07553073
0.07338153
0.06789498
0.06033551
0.05510226
0.05437717
0.0573094
0.06274919
0.06946933
0.07372249
0.07538617
0.07459314
0.06953759
0.05344152
0.01489275
0.09059437
0.09035907
0.08971259
0.08821147
0.08587856
0.08237267
0.07840074
0.0753181
0.07321029
0.07197634
0.07156396
0.07193052
0.07287648
0.07384274
0.07397771
0.07268961
0.06987073
0.06431158
0.05687735
0.05205113
0.05197616
0.05556071
0.06159677
0.06887433
0.07345624
0.07540427
0.07489458
0.07012014
0.05413285
0.01500104
0.0905977
0.09034361
0.08964941
0.08807389
0.08564587
0.08200932
0.07797882
0.07492227
0.07287307
0.07169116
0.07129588
0.07160089
0.07231958
0.07276211
0.07199788
0.06963881
0.06611788
0.06051955
0.05327727
0.04898067
0.04966742
0.05395332
0.06057663
0.06835237
0.07323829
0.07541972
0.07511306
0.07051772
0.05458562
0.01506789
0.09059507
0.09032039
0.08958002
0.08792898
0.08541776
0.08178029
0.0778357
0.07482103
0.07277852
0.07158664
0.07115776
0.07136611
0.07183477
0.07173312
0.07004002
0.06659502
0.06240383
0.05680165
0.04974784
0.04598392
0.0474247
0.05238434
0.05955823
0.06779794
0.07298919
0.07537358
0.07522236
0.07074811
0.05485209
0.0151059
0.09058952
0.09029494
0.08951462
0.08779553
0.08519186
0.08155394
0.07770748
0.0747514
0.07273108
0.07153642
0.07107656
0.0711953
0.07143819
0.07084913
0.06832509
0.06392514
0.05916541
0.0535631
0.04659463
0.04321185
0.04527388
0.05080787
0.05845549
0.06711859
0.07266248
0.07524788
0.07523124
0.0708465
0.05498106
0.01512397
0.09058345
0.09027238
0.08946292
0.08769559
0.08500506
0.08128828
0.07748039
0.07459493
0.07263151
0.07146591
0.07100137
0.07106289
0.07114605
0.07021347
0.06711183
0.06205114
0.05687612
0.05123848
0.04418462
0.04088592
0.04333033
0.04928124
0.0572676
0.06626338
0.0722057
0.0750356
0.0751594
0.07085016
0.05501463
0.01512866
0.09057818
0.09025466
0.08942536
0.08762592
0.08486731
0.08112779
0.07733234
0.07447925
0.07255235
0.07140772
0.07094173
0.07097174
0.070976
0.06989084
0.06654938
0.0612172
0.05584718
0.0501704
0.04286619
0.03926761
0.04179409
0.04799164
0.05613718
0.06522357
0.07159018
0.07474629
0.07503482
0.07079692
0.05499114
0.01512544
0.09057458
0.09024314
0.08940158
0.0875817
0.08477885
0.08099346
0.07722445
0.07439978
0.07249511
0.07136229
0.07089688
0.07092266
0.0709377
0.06991193
0.06670265
0.06153852
0.05625431
0.05056669
0.04288242
0.03855851
0.04078627
0.04702559
0.05519475
0.06412843
0.07091639
0.07444765
0.07490177
0.07072655
0.05494707
0.0151192
0.09057317
0.09023858
0.08939145
0.08755917
0.08472371
0.08097825
0.07723913
0.0743932
0.07247088
0.07133065
0.07086586
0.07091695
0.07103936
0.07030469
0.06764491
0.06313784
0.05821997
0.052504
0.04433348
0.03891016
0.04040974
0.04642633
0.05450998
0.06339183
0.07047379
0.07424257
0.0748071
0.07067404
0.05491303
0.01511437
0.09057413
0.09024139
0.08939665
0.0875674
0.08473765
0.0809996
0.0772616
0.07440303
0.07246411
0.07131275
0.07085197
0.07095474
0.07126619
0.07101681
0.0692588
0.06581837
0.06151263
0.05577641
0.04708995
0.04039388
0.04083403
0.04639196
0.0543023
0.06309612
0.07030798
0.07416975
0.07477489
0.07065957
0.05490735
0.01511395
0.09057738
0.09025126
0.08941682
0.0876066
0.08482288
0.08106571
0.0772986
0.0744321
0.07247807
0.0713141
0.07086032
0.07102987
0.07156792
0.0718784
0.07114283
0.06893389
0.06541001
0.05970194
0.05054312
0.04272069
0.04202297
0.04697942
0.05463985
0.06336487
0.07045217
0.07423116
0.07480634
0.07068307
0.05492882
0.01511755
0.09058257
0.09026743
0.08945022
0.0876688
0.08494557
0.08123178
0.07741571
0.07450805
0.07252684
0.07134741
0.0709008
0.07113984
0.07190315
0.07274744
0.07296264
0.07192303
0.06923669
0.06366488
0.05411238
0.04539202
0.04366752
0.04800648
0.05541937
0.06404309
0.07082748
0.07440435
0.07488587
0.07072701
0.05495947
0.01512211
0.09058908
0.09028873
0.08949616
0.08775847
0.08512364
0.0814466
0.07759789
0.07464379
0.07262255
0.07141848
0.07097496
0.07128024
0.07225112
0.07356562
0.07459557
0.07457172
0.07267799
0.06730678
0.05746573
0.04809525
0.04552129
0.04927542
0.05646549
0.06505976
0.07140888
0.07465696
0.07498401
0.07076136
0.05497058
0.01512347
0.09059612
0.09031447
0.08955659
0.08787848
0.0853174
0.08169047
0.07773651
0.07471837
0.07267781
0.07147437
0.07105428
0.07143665
0.07260392
0.0743292
0.07604447
0.07687455
0.07567773
0.07051113
0.06048119
0.0506884
0.04743919
0.05061703
0.05753512
0.06614092
0.07206995
0.07492506
0.07505833
0.07074785
0.05492743
0.01511696
0.09060209
0.09034104
0.08962394
0.0880144
0.08554517
0.0818556
0.07780345
0.07475389
0.07271467
0.07152916
0.07114797
0.07161648
0.07297139
0.07506018
0.07735709
0.07890119
0.07829163
0.0732973
0.06318527
0.05322108
0.04952928
0.05221033
0.05877128
0.06707319
0.07254471
0.07509848
0.07505588
0.07064354
0.05479096
0.0150976
0.09060436
0.09036224
0.08968552
0.08813909
0.08575247
0.08216756
0.07811214
0.07500907
0.07291786
0.07170411
0.07133
0.07186232
0.07338044
0.07578781
0.07858335
0.08072619
0.08059682
0.07572253
0.06561552
0.0556699
0.05168879
0.05387698
0.05995306
0.0677924
0.07286352
0.07516936
0.07495054
0.07040962
0.05451956
0.01505902
0.09060041
0.09037538
0.08974198
0.08826007
0.08595611
0.08250668
0.07857163
0.07546739
0.07331237
0.0720341
0.07162867
0.07219127
0.0738408
0.07652494
0.07975222
0.08239937
0.08265198
0.07783997
0.06780732
0.05801909
0.05386275
0.05557468
0.06111016
0.06843511
0.07311785
0.07516813
0.07473577
0.07001145
0.05406504
0.0149924
0.09058883
0.0903854
0.08981223
0.08841648
0.08622402
0.08296588
0.07922044
0.07606617
0.07380802
0.07244152
0.07198579
0.07255954
0.07431923
0.07725067
0.08086037
0.08393627
0.08448427
0.07968217
0.06978809
0.06027763
0.05606607
0.05735912
0.06233951
0.06910413
0.0734141
0.07516282
0.07443967
0.06943135
0.05337507
0.01488502
0.09057299
0.09041562
0.0899472
0.08868736
0.08666084
0.08367137
0.07995166
0.07663401
0.07426464
0.07281773
0.07231006
0.07288521
0.07474372
0.07790834
0.08187115
0.0853194
0.08608864
0.08125293
0.07155947
0.0624493
0.05834401
0.05935145
0.06382984
0.0700138
0.07393104
0.07531445
0.0741805
0.06871411
0.05241519
0.01471768
0.09057211
0.09053634
0.0902636
0.08921627
0.08740904
0.08469877
0.08111649
0.07758465
0.07495021
0.07326811
0.07258605
0.0730875
0.07501489
0.0784098
0.08271978
0.08650531
0.08743264
0.08252292
0.07307237
0.06447763
0.06069103
0.06165568
0.06580211
0.07145269
0.07499989
0.07597088
0.07427701
0.06807725
0.05122894
0.01446354
0.09064976
0.09091708
0.09098122
0.09022422
0.0886695
0.08622606
0.08271775
0.07893734
0.07579397
0.07362142
0.07260028
0.07296143
0.07496419
0.07863146
0.08332204
0.08743534
0.08846243
0.08343451
0.07420918
0.06618818
0.06294194
0.06422647
0.06842157
0.07378887
0.07710955
0.07771555
0.07537757
0.06812807
0.05013455
0.01410016
0.09096383
0.09182272
0.09227354
0.09175815
0.09040556
0.08812225
0.08438624
0.07998624
0.07599051
0.07320084
0.07187098
0.07219682
0.07440388
0.07846115
0.08360571
0.08805542
0.08912766
0.08391406
0.07480233
0.06727585
0.06466741
0.06663117
0.07147073
0.07714827
0.080557
0.08104387
0.07831493
0.07011383
0.05045189
0.01374053
0.09172411
0.0931019
0.09342743
0.09282289
0.0915999
0.08956527
0.08594194
0.08044774
0.07508303
0.07167624
0.0702551
0.07077787
0.07336857
0.07792583
0.08356319
0.0883299
0.08939496
0.08391656
0.07474344
0.0674623
0.06530108
0.06800008
0.07401382
0.08081666
0.08460233
0.08533097
0.08308308
0.07537759
0.05485254
0.01432584
0.09228584
0.09278169
0.0924026
0.09186403
0.09121855
0.0901122
0.0873811
0.08038287
0.07339758
0.06969852
0.06851045
0.06938605
0.07235671
0.07729487
0.08325284
0.08818783
0.0891871
0.08346249
0.07417792
0.06692682
0.06481659
0.06783682
0.07527695
0.08497218
0.08841303
0.08915301
0.08839879
0.08455104
0.06886968
0.01893298
0.09210858
0.09233456
0.09173256
0.090963
0.09001971
0.08826242
0.08378677
0.07769554
0.07328981
0.07084773
0.06997195
0.07061734
0.07285969
0.0764878
0.08063924
0.08374955
0.08368789
0.07815114
0.07016248
0.06448633
0.06341831
0.06660201
0.07325021
0.08308194
0.08654807
0.0872746
0.08652624
0.08296095
0.06865342
0.01914023
0.09096208
0.09181551
0.09225544
0.09171867
0.09032554
0.08797387
0.08427638
0.07988153
0.07594006
0.07319174
0.07184199
0.07202197
0.07381368
0.07698792
0.08070834
0.08349914
0.08336801
0.07808147
0.07038233
0.06493875
0.06402128
0.06703562
0.07235943
0.07780018
0.08093873
0.08127126
0.078465
0.07022755
0.05053335
0.01374796
0.089803
0.08974195
0.09057205
0.09081935
0.09002522
0.08809745
0.08497254
0.08129733
0.07782513
0.07514709
0.07360727
0.07343551
0.07473965
0.07730042
0.08034797
0.08257231
0.08222943
0.07721573
0.06989344
0.06469102
0.06373228
0.06625761
0.07050923
0.07453999
0.0766365
0.07603823
0.07178214
0.06170809
0.04198187
0.01139616
0.0892937
0.08831215
0.08858567
0.0887538
0.08815237
0.08654765
0.08399515
0.08099155
0.07810982
0.07580445
0.07440432
0.07415337
0.07515789
0.07719761
0.07956329
0.08113167
0.08046489
0.07561736
0.06852593
0.06337497
0.06218187
0.06412194
0.06750599
0.07067506
0.0722041
0.07127757
0.06687937
0.05713642
0.03887881
0.01098006
0.08913313
0.08768747
0.0874237
0.0871887
0.08637771
0.08472936
0.08239033
0.07979318
0.07737898
0.07547756
0.0743437
0.0741753
0.07503242
0.07665459
0.07835844
0.07920485
0.07810565
0.07331539
0.06631341
0.06110164
0.0596821
0.06123698
0.06419979
0.06711966
0.06864748
0.06801861
0.0642838
0.055665
0.03878041
0.01124833
0.08910002
0.08747339
0.0869045
0.08634467
0.08526672
0.08342238
0.08106415
0.07862222
0.07645112
0.07480694
0.07387814
0.07379667
0.07454254
0.07576998
0.07677693
0.07680406
0.07516777
0.07036919
0.06341562
0.05819844
0.05677929
0.05834267
0.06139731
0.06458442
0.06649238
0.06644893
0.06355177
0.05597392
0.03987058
0.01157385
0.08910136
0.08741094
0.08669113
0.08593359
0.08465593
0.08261854
0.0801413
0.07771442
0.07564493
0.07413451
0.07332128
0.0732737
0.07387578
0.07466116
0.074872
0.07394295
0.07167477
0.06686061
0.06000597
0.054952
0.05383923
0.05577904
0.05927507
0.06298921
0.06540317
0.06595261
0.06375342
0.05689369
0.04111621
0.01181562
0.08910601
0.08738899
0.08658968
0.08571445
0.08430177
0.08211728
0.07952245
0.07705927
0.07502274
0.07357772
0.07281977
0.07275505
0.07316051
0.07342004
0.07269177
0.07064805
0.06768302
0.06289984
0.05623957
0.05153957
0.05099306
0.05354605
0.05764562
0.06195406
0.06486098
0.06590245
0.0642085
0.05779862
0.04212465
0.01197471
0.08910613
0.08736954
0.0865167
0.08555996
0.0840447
0.08176431
0.07910384
0.07661915
0.0745975
0.0731826
0.07243934
0.07231592
0.07247357
0.07211904
0.07030183
0.06700499
0.06333866
0.05867297
0.05229066
0.04807583
0.04824216
0.05150576
0.05624144
0.06111649
0.06450217
0.06593112
0.06459264
0.05846521
0.04281858
0.01207246
0.08910164
0.08734421
0.08644536
0.08542108
0.08382562
0.08151202
0.07884663
0.07636295
0.07434744
0.07293862
0.07218262
0.07197522
0.071858
0.07084208
0.06784997
0.06325747
0.05897208
0.05450844
0.04841343
0.04468521
0.04556968
0.04953579
0.05488609
0.06029717
0.06413459
0.06587814
0.06479988
0.05886158
0.04323278
0.01212684
0.08909483
0.08731654
0.08637819
0.08529702
0.08363027
0.08128663
0.0786308
0.07616549
0.07416733
0.07276831
0.07200013
0.07171421
0.0713447
0.06972193
0.06565129
0.05991897
0.05515572
0.05089817
0.04497047
0.04154688
0.04300043
0.04757416
0.05347842
0.05938908
0.06367469
0.06569487
0.06482491
0.05902669
0.04342878
0.01215099
0.08908783
0.08729133
0.08632212
0.08519775
0.08347136
0.08108315
0.07842331
0.07597796
0.07400564
0.07262551
0.07185566
0.07151585
0.07096692
0.06892084
0.06411461
0.05761777
0.05250158
0.04834453
0.04237849
0.03890632
0.04064262
0.04566355
0.052026
0.05837574
0.06309879
0.06538826
0.06470438
0.05902139
0.04346962
0.01215466
0.08908192
0.08727122
0.08627968
0.08512503
0.08335615
0.08093675
0.07827099
0.07583745
0.07388254
0.07251504
0.0717442
0.07137582
0.07074319
0.06851776
0.06341852
0.05661996
0.05133014
0.04719264
0.04100808
0.03705131
0.03869067
0.04395464
0.05064903
0.05733374
0.06244272
0.06500303
0.06449789
0.05891572
0.04341841
0.01214621
0.08907794
0.08725804
0.08625254
0.08507916
0.0832833
0.08084138
0.07817218
0.07574495
0.0737985
0.07243549
0.0716629
0.07129307
0.07068197
0.06853855
0.06360428
0.05700277
0.05179444
0.04763633
0.04111823
0.03626262
0.03736281
0.04261169
0.04948739
0.05638843
0.06180985
0.06462654
0.064281
0.05878265
0.04333656
0.01213344
0.08907637
0.08725284
0.0862417
0.08506006
0.08325121
0.08080617
0.07813742
0.07570609
0.07375509
0.07238699
0.07161309
0.07127309
0.07080068
0.06903768
0.06481227
0.05898365
0.05408159
0.04977635
0.04281517
0.03677492
0.03691034
0.04185
0.04872507
0.05573441
0.06137129
0.06436443
0.06412774
0.05868612
0.04327608
0.012124
0.08907741
0.08725607
0.08624796
0.08506996
0.08326594
0.08082447
0.07815438
0.07571539
0.07375308
0.07237384
0.07160102
0.07132004
0.07108834
0.0699709
0.06696029
0.06243279
0.05803623
0.05345037
0.04594089
0.03864123
0.03754108
0.04190835
0.04859398
0.05556122
0.0612384
0.06428202
0.06408331
0.05866493
0.04326891
0.01212362
0.08908096
0.08726739
0.08627066
0.08510795
0.08332647
0.08089636
0.07822293
0.07577301
0.07379464
0.07240091
0.07163165
0.07142467
0.07147254
0.07108132
0.06941876
0.06639924
0.06273389
0.0579066
0.04983453
0.04147975
0.0391599
0.04280257
0.04913509
0.05590491
0.06142781
0.0643868
0.06415065
0.05871855
0.04331254
0.01213138
0.08908666
0.08728583
0.08630813
0.08517093
0.08342636
0.08102018
0.07834489
0.07588145
0.0738847
0.07247492
0.07170972
0.07157736
0.07188997
0.07215403
0.07167304
0.0700372
0.06722324
0.06237033
0.05381287
0.04465763
0.04132985
0.04424478
0.05015118
0.0566323
0.06186818
0.06463771
0.06429509
0.05881148
0.04337544
0.01214165
0.08909393
0.08731
0.0863587
0.08525812
0.0835651
0.08119725
0.07852526
0.07604563
0.0740259
0.07259698
0.07183474
0.07177142
0.07231519
0.07312347
0.07359758
0.07312038
0.07114085
0.06641556
0.05750738
0.04781245
0.04372536
0.04597041
0.05142479
0.05757987
0.06245534
0.0649635
0.06445663
0.05888551
0.04340802
0.01214717
0.08910196
0.08733844
0.08642169
0.08536945
0.08373831
0.08139965
0.07871775
0.07622102
0.0741849
0.07274609
0.071995
0.07200062
0.07274689
0.07400324
0.07524094
0.07570757
0.07447182
0.06992842
0.06079134
0.05078479
0.04616045
0.04779617
0.0527703
0.05856188
0.06306231
0.06527381
0.06456108
0.05887025
0.04335159
0.01214072
0.08910924
0.08736749
0.08649133
0.08549646
0.08393388
0.08161171
0.07892007
0.07641365
0.07437025
0.07293083
0.07219841
0.07227299
0.07319937
0.07483186
0.07669142
0.07792789
0.077322
0.07294903
0.06368735
0.05358276
0.04863712
0.04974674
0.05421018
0.05954254
0.06358455
0.06547844
0.06453195
0.05869181
0.04314323
0.01211457
0.0891135
0.08739172
0.08655889
0.08562697
0.08414321
0.08188488
0.07922379
0.07672077
0.07466604
0.0732152
0.07248895
0.07261723
0.07369655
0.07564757
0.07802457
0.07989521
0.07980607
0.07555866
0.06625515
0.05622352
0.05111926
0.05175678
0.05566405
0.06045739
0.06400331
0.0655501
0.06432471
0.0582876
0.0427206
0.0120592
0.08911282
0.08740931
0.08662752
0.08577316
0.08438575
0.08223226
0.07965775
0.0771888
0.07512354
0.07364354
0.07289796
0.07305182
0.07425071
0.07647033
0.07928482
0.08168253
0.08200641
0.07782858
0.06855198
0.05873142
0.05360513
0.05383722
0.05717773
0.06138766
0.06440097
0.06553718
0.06394393
0.05761866
0.04202294
0.0119616
0.08910747
0.08742939
0.08672602
0.08598882
0.08473583
0.08273737
0.08028722
0.0778511
0.07575325
0.07421218
0.07341196
0.07355664
0.07484075
0.07728772
0.080479
0.08331865
0.08396327
0.0798
0.07061247
0.06112739
0.05612768
0.05607402
0.05889813
0.06251798
0.06497403
0.06560236
0.06349532
0.05671607
0.04101515
0.01180365
0.08910534
0.0874901
0.08693762
0.08640006
0.08535134
0.08355294
0.08119888
0.07873447
0.07654098
0.07487796
0.0739687
0.07406109
0.0753994
0.07804685
0.08157583
0.08479322
0.08567789
0.08147681
0.07242838
0.06339301
0.05870349
0.05857792
0.06105303
0.06416908
0.06608243
0.06611058
0.06330077
0.05580087
0.03977282
0.01156364
0.08913765
0.08770249
0.08745529
0.08724445
0.08646622
0.08486811
0.08253973
0.07992453
0.07748632
0.07556302
0.07444331
0.07442698
0.07580158
0.07865113
0.08251063
0.08606647
0.08712157
0.08282476
0.07392903
0.06541856
0.06123545
0.06134957
0.06381194
0.06669309
0.06823631
0.06768619
0.06403898
0.05549676
0.03868623
0.0112401
0.08929748
0.08832567
0.08861578
0.08880939
0.08824355
0.08669105
0.08416969
0.08115805
0.0782434
0.07590452
0.07450749
0.07438801
0.07585048
0.07896704
0.08319841
0.08708342
0.08824862
0.08378061
0.07497935
0.06697066
0.06341541
0.06409034
0.06701733
0.07018554
0.07177891
0.07095338
0.066647
0.05697788
0.03879048
0.01097368
0.08980608
0.08975368
0.09059943
0.0908724
0.0901164
0.08823953
0.08512904
0.08144447
0.07793268
0.07521846
0.07368162
0.0736336
0.07535663
0.07888197
0.08356888
0.08779397
0.08901266
0.08428178
0.07542736
0.06774748
0.0647425
0.06610645
0.06989501
0.07397619
0.0762121
0.0757468
0.07158552
0.06157619
0.04190747
0.0113918
0.09096407
0.09182356
0.09227531
0.09176141
0.09041144
0.0881316
0.08440128
0.08001785
0.07602748
0.073229
0.07187789
0.07217805
0.07436395
0.07842172
0.08361019
0.08815789
0.08937396
0.0843038
0.07522544
0.06760557
0.06485774
0.06671834
0.07150303
0.07715492
0.08056497
0.08105851
0.07833796
0.07014612
0.05048577
0.0137461
0.09210891
0.09233659