/*--------------------------------*- C++ -*----------------------------------*\
| =========                 |                                                 |
| \\      /  F ield         | OpenFOAM: The Open Source CFD Toolbox           |
|  \\    /   O peration     | Version:  2506                                  |
|   \\  /    A nd           | Website:  www.openfoam.com                      |
|    \\/     M anipulation  |                                                 |
\*---------------------------------------------------------------------------*/
FoamFile
{
    version     2.0;
    format      ascii;
    arch        "LSB;label=32;scalar=64";
    class       volScalarField;
    location    "4000/floor";
    object      T;
}
// * * * * * * * * * * * * * * * * * * * * * * * * * * * * * * * * * * * * * //

dimensions      [0 0 0 1 0 0 0];

internalField   nonuniform List<scalar> 
2700
(
301.8774
301.8802
301.8837
301.8872
301.8903
301.893
301.8954
301.8975
301.8993
301.9008
301.902
301.903
301.9037
301.9041
301.9044
301.9044
301.9041
301.9036
301.9028
301.9018
301.9005
301.8989
301.897
301.8948
301.8922
301.8894
301.8861
301.8825
301.8789
301.876
301.8802
301.883
301.8865
301.8899
301.893
301.8957
301.898
301.9
301.9018
301.9032
301.9044
301.9053
301.906
301.9064
301.9067
301.9066
301.9064
301.9059
301.9052
301.9042
301.9029
301.9014
301.8995
301.8973
301.8948
301.892
301.8888
301.8853
301.8817
301.8788
301.8839
301.8866
301.8901
301.8934
301.8964
301.899
301.9012
301.9032
301.9049
301.9062
301.9074
301.9082
301.9089
301.9093
301.9095
301.9095
301.9093
301.9088
301.9081
301.9071
301.9059
301.9044
301.9026
301.9005
301.8981
301.8953
301.8922
301.8888
301.8852
301.8824
301.8875
301.8901
301.8935
301.8967
301.8996
301.9021
301.9043
301.9062
301.9078
301.9091
301.9102
301.911
301.9116
301.912
301.9122
301.9122
301.912
301.9115
301.9109
301.9099
301.9088
301.9073
301.9056
301.9036
301.9012
301.8985
301.8955
301.8921
301.8887
301.8859
301.8907
301.8933
301.8966
301.8997
301.9025
301.905
301.9071
301.9089
301.9104
301.9116
301.9127
301.9134
301.914
301.9144
301.9146
301.9146
301.9144
301.9139
301.9133
301.9124
301.9113
301.9099
301.9082
301.9063
301.904
301.9014
301.8984
301.8952
301.8918
301.8891
301.8936
301.8961
301.8993
301.9024
301.9051
301.9075
301.9095
301.9112
301.9127
301.9139
301.9148
301.9156
301.9161
301.9165
301.9167
301.9166
301.9164
301.916
301.9154
301.9146
301.9135
301.9121
301.9105
301.9087
301.9065
301.9039
301.9011
301.8979
301.8945
301.8919
301.8961
301.8986
301.9017
301.9047
301.9073
301.9096
301.9116
301.9132
301.9146
301.9157
301.9167
301.9174
301.9179
301.9182
301.9184
301.9184
301.9182
301.9178
301.9172
301.9164
301.9154
301.9141
301.9125
301.9107
301.9086
301.9061
301.9033
301.9002
301.8969
301.8944
301.8983
301.9007
301.9038
301.9067
301.9093
301.9115
301.9133
301.9149
301.9163
301.9174
301.9182
301.9189
301.9194
301.9197
301.9199
301.9199
301.9197
301.9193
301.9187
301.918
301.917
301.9157
301.9142
301.9125
301.9104
301.908
301.9053
301.9022
301.899
301.8965
301.9003
301.9026
301.9056
301.9084
301.9109
301.913
301.9149
301.9164
301.9177
301.9187
301.9195
301.9202
301.9207
301.921
301.9211
301.9211
301.9209
301.9206
301.92
301.9193
301.9183
301.9171
301.9157
301.9139
301.9119
301.9096
301.9069
301.904
301.9008
301.8983
301.9026
301.9044
301.9071
301.9099
301.9123
301.9143
301.9161
301.9176
301.9188
301.9198
301.9206
301.9212
301.9217
301.922
301.9221
301.9221
301.9219
301.9216
301.9211
301.9204
301.9194
301.9183
301.9168
301.9151
301.9132
301.9109
301.9083
301.9053
301.9023
301.8998
301.907
301.9067
301.9086
301.911
301.9134
301.9154
301.9171
301.9186
301.9197
301.9207
301.9215
301.9221
301.9225
301.9228
301.9229
301.9229
301.9228
301.9224
301.9219
301.9212
301.9203
301.9192
301.9177
301.916
301.9139
301.9116
301.909
301.9061
301.9031
301.9007
301.9168
301.9103
301.91
301.912
301.9143
301.9162
301.9179
301.9193
301.9205
301.9214
301.9222
301.9227
301.9232
301.9234
301.9236
301.9236
301.9234
301.9231
301.9226
301.9219
301.921
301.9198
301.9181
301.9159
301.9134
301.9108
301.9079
301.9044
301.9013
301.8992
301.9164
301.9111
301.9109
301.9127
301.9149
301.9168
301.9185
301.9199
301.921
301.9219
301.9227
301.9232
301.9236
301.9239
301.924
301.924
301.9239
301.9236
301.9231
301.9224
301.9214
301.92
301.9176
301.9137
301.9094
301.9058
301.9012
301.8949
301.8907
301.889
301.9267
301.915
301.9121
301.9133
301.9153
301.9172
301.9189
301.9202
301.9213
301.9223
301.923
301.9235
301.9239
301.9242
301.9243
301.9243
301.9242
301.9239
301.9234
301.9227
301.9217
301.9198
301.916
301.9092
301.9013
301.8952
301.8875
301.8798
301.8757
301.8746
301.9314
301.917
301.9128
301.9136
301.9156
301.9174
301.9191
301.9204
301.9215
301.9224
301.9231
301.9237
301.9241
301.9244
301.9245
301.9245
301.9243
301.924
301.9235
301.9228
301.9218
301.9197
301.9152
301.9066
301.897
301.8898
301.8809
301.8726
301.868
301.8662
301.9324
301.9174
301.9129
301.9137
301.9156
301.9174
301.9191
301.9204
301.9215
301.9225
301.9232
301.9237
301.9241
301.9244
301.9245
301.9245
301.9243
301.924
301.9235
301.9228
301.9217
301.9196
301.9148
301.9058
301.8957
301.8882
301.8791
301.8706
301.8655
301.8632
301.931
301.9167
301.9126
301.9134
301.9154
301.9172
301.9189
301.9202
301.9214
301.9224
301.9234
301.9237
301.924
301.9242
301.9243
301.9243
301.9242
301.9239
301.9234
301.9227
301.9216
301.9194
301.9146
301.9056
301.8955
301.888
301.8789
301.8704
301.8652
301.8626
301.9251
301.9143
301.9116
301.9129
301.9149
301.9168
301.9185
301.9199
301.9212
301.9226
301.9241
301.9239
301.9238
301.9239
301.924
301.924
301.9239
301.9235
301.9231
301.9223
301.9213
301.9192
301.9146
301.9061
301.8964
301.8892
301.8804
301.8726
301.8684
301.865
301.915
301.9098
301.91
301.912
301.9142
301.9162
301.9179
301.9194
301.9208
301.9229
301.9252
301.9242
301.9235
301.9235
301.9236
301.9236
301.9234
301.9231
301.9226
301.9219
301.9208
301.9189
301.9151
301.9082
301.9003
301.8942
301.8871
301.8822
301.8787
301.8762
301.9054
301.9062
301.9085
301.911
301.9134
301.9154
301.9171
301.9186
301.9199
301.9214
301.9229
301.9228
301.9227
301.9228
301.9229
301.9229
301.9228
301.9224
301.9219
301.9212
301.9202
301.9187
301.9163
301.9124
301.908
301.9044
301.9004
301.897
301.8939
301.8915
301.9021
301.9043
301.9071
301.9098
301.9122
301.9143
301.9161
301.9176
301.9188
301.92
301.921
301.9214
301.9217
301.922
301.9221
301.9221
301.9219
301.9216
301.9211
301.9203
301.9194
301.9181
301.9164
301.9141
301.9115
301.9089
301.9061
301.9033
301.9005
301.8979
301.9002
301.9026
301.9056
301.9084
301.9109
301.913
301.9148
301.9164
301.9176
301.9187
301.9196
301.9202
301.9206
301.9209
301.9211
301.9211
301.9209
301.9205
301.92
301.9192
301.9183
301.9171
301.9155
301.9137
301.9116
301.9092
301.9068
301.9046
301.9024
301.8993
301.8983
301.9007
301.9038
301.9067
301.9092
301.9114
301.9133
301.9149
301.9162
301.9173
301.9182
301.9189
301.9194
301.9197
301.9198
301.9198
301.9196
301.9193
301.9187
301.9179
301.9169
301.9157
301.9142
301.9124
301.9103
301.908
301.9058
301.9042
301.903
301.899
301.896
301.8986
301.9017
301.9047
301.9073
301.9096
301.9115
301.9132
301.9146
301.9157
301.9166
301.9173
301.9178
301.9182
301.9184
301.9183
301.9181
301.9177
301.9172
301.9164
301.9153
301.914
301.9125
301.9107
301.9085
301.9061
301.9036
301.9012
301.899
301.8957
301.8935
301.8961
301.8993
301.9023
301.905
301.9074
301.9094
301.9111
301.9126
301.9138
301.9147
301.9155
301.916
301.9164
301.9166
301.9166
301.9164
301.916
301.9153
301.9145
301.9134
301.9121
301.9105
301.9086
301.9064
301.9039
301.9011
301.8981
301.8951
301.8923
301.8906
301.8932
301.8965
301.8997
301.9025
301.9049
301.907
301.9088
301.9103
301.9116
301.9126
301.9134
301.9139
301.9143
301.9145
301.9145
301.9143
301.9139
301.9132
301.9123
301.9112
301.9098
301.9082
301.9062
301.9039
301.9013
301.8984
301.8952
301.8918
301.8891
301.8874
301.8901
301.8934
301.8967
301.8995
301.9021
301.9042
301.9061
301.9077
301.909
301.9101
301.9109
301.9115
301.9119
301.9121
301.9121
301.9119
301.9114
301.9108
301.9099
301.9087
301.9072
301.9055
301.9035
301.9011
301.8985
301.8954
301.8921
301.8886
301.8859
301.8838
301.8866
301.89
301.8933
301.8963
301.8989
301.9012
301.9031
301.9048
301.9061
301.9073
301.9081
301.9088
301.9092
301.9094
301.9094
301.9092
301.9087
301.908
301.907
301.9058
301.9043
301.9025
301.9004
301.898
301.8952
301.8921
301.8887
301.8851
301.8823
301.8802
301.8829
301.8865
301.8898
301.8929
301.8956
301.8979
301.8999
301.9017
301.9031
301.9043
301.9052
301.9059
301.9063
301.9066
301.9065
301.9063
301.9058
301.9051
301.9041
301.9028
301.9013
301.8994
301.8972
301.8947
301.8919
301.8887
301.8852
301.8816
301.8787
301.8773
301.8801
301.8837
301.8871
301.8902
301.8929
301.8953
301.8974
301.8992
301.9007
301.9019
301.9028
301.9036
301.904
301.9043
301.9042
301.904
301.9035
301.9027
301.9017
301.9004
301.8988
301.8969
301.8947
301.8921
301.8893
301.886
301.8825
301.8788
301.8759
301.1874
301.192
301.1976
301.2029
301.2077
301.212
301.2157
301.2189
301.2216
301.224
301.2258
301.2273
301.2284
301.2291
301.2294
301.2294
301.229
301.2282
301.227
301.2255
301.2235
301.221
301.218
301.2146
301.2107
301.2062
301.2012
301.1956
301.1899
301.1851
301.1921
301.1966
301.2022
301.2074
301.2121
301.2163
301.2199
301.223
301.2257
301.2279
301.2297
301.2311
301.2322
301.2329
301.2332
301.2332
301.2328
301.232
301.2309
301.2294
301.2274
301.225
301.2221
301.2188
301.2149
301.2105
301.2056
301.2001
301.1945
301.1898
301.1979
301.2023
301.2077
301.2129
301.2174
301.2215
301.225
301.228
301.2305
301.2327
301.2344
301.2357
301.2367
301.2374
301.2377
301.2377
301.2373
301.2366
301.2355
301.234
301.2321
301.2298
301.227
301.2238
301.2201
301.2158
301.211
301.2056
301.2
301.1955
301.2034
301.2078
301.2131
301.218
301.2225
301.2264
301.2298
301.2327
301.2351
301.2371
301.2388
301.24
301.241
301.2416
301.2419
301.2419
301.2415
301.2408
301.2398
301.2384
301.2366
301.2343
301.2317
301.2285
301.2249
301.2208
301.2161
301.2109
301.2054
301.2009
301.2084
301.2127
301.2178
301.2227
301.227
301.2308
301.234
301.2368
301.2391
301.2411
301.2426
301.2438
301.2447
301.2453
301.2456
301.2456
301.2452
301.2446
301.2436
301.2422
301.2405
301.2383
301.2358
301.2327
301.2292
301.2252
301.2206
301.2156
301.2102
301.2058
301.2129
301.2171
301.2221
301.2268
301.231
301.2346
301.2378
301.2404
301.2427
301.2445
301.246
301.2471
301.248
301.2485
301.2488
301.2488
301.2484
301.2478
301.2469
301.2456
301.2439
301.2418
301.2394
301.2364
301.233
301.2291
301.2247
301.2197
301.2145
301.2102
301.2168
301.2209
301.2258
301.2304
301.2345
301.238
301.241
301.2435
301.2457
301.2474
301.2488
301.2499
301.2507
301.2513
301.2515
301.2515
301.2512
301.2506
301.2497
301.2484
301.2468
301.2448
301.2424
301.2396
301.2363
301.2325
301.2282
301.2234
301.2182
301.214
301.2202
301.2242
301.229
301.2335
301.2375
301.2409
301.2438
301.2462
301.2483
301.2499
301.2513
301.2523
301.2531
301.2536
301.2538
301.2538
301.2535
301.2529
301.252
301.2508
301.2493
301.2474
301.2451
301.2423
301.2391
301.2354
301.2312
301.2265
301.2215
301.2173
301.2233
301.2271
301.2318
301.2362
301.24
301.2433
301.2461
301.2485
301.2504
301.252
301.2533
301.2543
301.255
301.2555
301.2557
301.2557
301.2554
301.2549
301.254
301.2529
301.2514
301.2495
301.2473
301.2446
301.2415
301.2379
301.2338
301.2292
301.2243
301.2202
301.2267
301.2299
301.2342
301.2384
301.2421
301.2453
301.248
301.2503
301.2522
301.2538
301.255
301.2559
301.2566
301.2571
301.2573
301.2573
301.257
301.2565
301.2557
301.2545
301.2531
301.2513
301.2491
301.2465
301.2434
301.2399
301.2359
301.2313
301.2265
301.2225
301.2339
301.2334
301.2364
301.2402
301.2438
301.247
301.2496
301.2518
301.2537
301.2552
301.2563
301.2573
301.2579
301.2584
301.2586
301.2586
301.2583
301.2578
301.257
301.2559
301.2545
301.2527
301.2505
301.2478
301.2447
301.2412
301.2371
301.2325
301.2277
301.2239
301.2539
301.2391
301.2385
301.2417
301.2452
301.2482
301.2508
301.253
301.2548
301.2562
301.2574
301.2583
301.2589
301.2594
301.2596
301.2596
301.2593
301.2588
301.258
301.2569
301.2555
301.2537
301.2513
301.248
301.2443
301.2405
301.2359
301.23
301.2247
301.221
301.252
301.2399
301.2397
301.2428
301.2462
301.2492
301.2517
301.2539
301.2556
301.257
301.2582
301.259
301.2597
301.2601
301.2603
301.2603
301.26
301.2595
301.2588
301.2577
301.2562
301.2542
301.2509
301.2457
301.2398
301.2345
301.2271
301.215
301.2041
301.2005
301.2678
301.2455
301.2415
301.2437
301.2469
301.2498
301.2523
301.2544
301.2561
301.2576
301.2587
301.2595
301.2601
301.2606
301.2608
301.2608
301.2605
301.26
301.2592
301.2582
301.2566
301.2541
301.2492
301.2405
301.2302
301.2216
301.2096
301.195
301.1836
301.1807
301.2744
301.2482
301.2424
301.2441
301.2472
301.2501
301.2526
301.2547
301.2564
301.2578
301.2589
301.2598
301.2604
301.2608
301.261
301.261
301.2607
301.2602
301.2595
301.2584
301.2568
301.254
301.2482
301.2376
301.2252
301.2151
301.2014
301.1859
301.1739
301.1702
301.2756
301.2487
301.2426
301.2442
301.2472
301.2501
301.2526
301.2547
301.2564
301.2579
301.259
301.2598
301.2604
301.2608
301.261
301.261
301.2607
301.2602
301.2595
301.2584
301.2568
301.2539
301.2478
301.2366
301.2236
301.2132
301.1991
301.1833
301.1708
301.1665
301.2735
301.2477
301.2421
301.2438
301.2469
301.2498
301.2523
301.2544
301.2562
301.2578
301.2591
301.2597
301.2602
301.2606
301.2608
301.2607
301.2605
301.26
301.2592
301.2582
301.2565
301.2536
301.2475
301.2363
301.2233
301.2129
301.1988
301.1831
301.1709
301.1659
301.2616
301.2442
301.2407
301.243
301.2462
301.2492
301.2517
301.2539
301.2558
301.2579
301.26
301.2599
301.2599
301.2601
301.2603
301.2603
301.26
301.2595
301.2587
301.2576
301.256
301.2532
301.2474
301.2367
301.2242
301.2142
301.2007
301.1867
301.1791
301.1702
301.2513
301.2383
301.2384
301.2417
301.2452
301.2482
301.2508
301.2531
301.2552
301.258
301.2611
301.2601
301.2594
301.2594
301.2596
301.2595
301.2593
301.2588
301.258
301.2569
301.2553
301.2527
301.2478
301.239
301.2287
301.2202
301.2096
301.2016
301.1961
301.1916
301.2317
301.2326
301.2362
301.2402
301.2438
301.2469
301.2496
301.2518
301.2539
301.256
301.2581
301.2581
301.2581
301.2584
301.2586
301.2585
301.2583
301.2578
301.257
301.2559
301.2544
301.2522
301.2488
301.2436
301.2377
301.2324
301.2264
301.2211
301.2162
301.2122
301.2261
301.2296
301.2341
301.2384
301.2421
301.2453
301.248
301.2503
301.2523
301.254
301.2554
301.2561
301.2567
301.2571
301.2573
301.2573
301.257
301.2565
301.2556
301.2545
301.253
301.2511
301.2486
301.2453
301.2415
301.2375
301.2332
301.2288
301.2243
301.22
301.2232
301.2271
301.2318
301.2361
301.24
301.2433
301.2461
301.2484
301.2504
301.252
301.2534
301.2543
301.255
301.2555
301.2557
301.2557
301.2554
301.2548
301.254
301.2528
301.2513
301.2495
301.2471
301.2443
301.2411
301.2375
301.2336
301.2299
301.2262
301.2213
301.2202
301.2242
301.229
301.2335
301.2374
301.2408
301.2437
301.2462
301.2482
301.2499
301.2512
301.2523
301.253
301.2535
301.2538
301.2537
301.2534
301.2529
301.252
301.2508
301.2492
301.2473
301.245
301.2422
301.239
301.2355
301.2318
301.2288
301.2262
301.2203
301.2167
301.2208
301.2258
301.2304
301.2344
301.2379
301.2409
301.2435
301.2456
301.2474
301.2488
301.2499
301.2507
301.2512
301.2515
301.2514
301.2511
301.2505
301.2496
301.2483
301.2467
301.2448
301.2424
301.2395
301.2363
301.2325
301.2285
301.2246
301.2207
301.2156
301.2128
301.217
301.222
301.2268
301.2309
301.2346
301.2377
301.2403
301.2426
301.2444
301.2459
301.247
301.2479
301.2484
301.2487
301.2487
301.2484
301.2477
301.2468
301.2455
301.2438
301.2418
301.2393
301.2364
301.233
301.2291
301.2247
301.22
301.2152
301.2106
301.2083
301.2126
301.2178
301.2226
301.2269
301.2307
301.2339
301.2367
301.2391
301.241
301.2425
301.2437
301.2446
301.2452
301.2455
301.2455
301.2452
301.2445
301.2435
301.2421
301.2404
301.2383
301.2357
301.2327
301.2292
301.2251
301.2206
301.2156
301.2103
301.2058
301.2033
301.2077
301.213
301.218
301.2224
301.2263
301.2297
301.2326
301.235
301.237
301.2387
301.2399
301.2409
301.2415
301.2418
301.2418
301.2414
301.2407
301.2397
301.2383
301.2365
301.2342
301.2316
301.2284
301.2248
301.2207
301.216
301.2108
301.2053
301.2008
301.1978
301.2022
301.2076
301.2128
301.2173
301.2214
301.2249
301.2279
301.2304
301.2326
301.2343
301.2356
301.2366
301.2373
301.2376
301.2376
301.2372
301.2365
301.2354
301.2339
301.232
301.2297
301.2269
301.2237
301.2199
301.2157
301.2109
301.2055
301.2
301.1954
301.192
301.1965
301.2021
301.2073
301.212
301.2162
301.2198
301.2229
301.2256
301.2278
301.2296
301.231
301.2321
301.2328
301.2331
301.2331
301.2327
301.2319
301.2308
301.2292
301.2273
301.2249
301.222
301.2187
301.2148
301.2104
301.2055
301.2
301.1944
301.1897
301.1873
301.1919
301.1975
301.2028
301.2076
301.2118
301.2156
301.2188
301.2215
301.2238
301.2257
301.2271
301.2282
301.2289
301.2293
301.2293
301.2289
301.2281
301.2269
301.2253
301.2233
301.2209
301.2179
301.2145
301.2105
301.2061
301.2011
301.1955
301.1897
301.185
300.8747
300.8831
300.8926
300.9015
300.9095
300.9166
300.9228
300.9281
300.9327
300.9365
300.9396
300.942
300.9438
300.945
300.9456
300.9456
300.9449
300.9436
300.9416
300.939
300.9356
300.9315
300.9266
300.9209
300.9143
300.9069
300.8985
300.8892
300.8794
300.8708
300.8833
300.8916
300.9009
300.9097
300.9175
300.9244
300.9304
300.9356
300.9401
300.9438
300.9467
300.9491
300.9508
300.952
300.9525
300.9525
300.9518
300.9505
300.9486
300.9461
300.9428
300.9388
300.9341
300.9285
300.9221
300.9148
300.9066
300.8975
300.8878
300.8793
300.8932
300.9013
300.9104
300.919
300.9266
300.9333
300.9391
300.9441
300.9483
300.9519
300.9547
300.9569
300.9586
300.9597
300.9602
300.9602
300.9595
300.9583
300.9565
300.954
300.9509
300.9471
300.9424
300.9371
300.9308
300.9237
300.9157
300.9068
300.8973
300.889
300.9024
300.9104
300.9193
300.9277
300.9351
300.9415
300.9471
300.9519
300.956
300.9594
300.9621
300.9641
300.9657
300.9668
300.9673
300.9672
300.9666
300.9654
300.9637
300.9613
300.9583
300.9546
300.9502
300.945
300.939
300.9321
300.9243
300.9156
300.9063
300.8981
300.9108
300.9186
300.9273
300.9354
300.9426
300.9489
300.9542
300.9588
300.9627
300.9659
300.9685
300.9705
300.972
300.9729
300.9734
300.9734
300.9728
300.9717
300.97
300.9678
300.9649
300.9613
300.9571
300.952
300.9462
300.9395
300.9319
300.9234
300.9143
300.9063
300.9182
300.9259
300.9344
300.9423
300.9492
300.9553
300.9605
300.9649
300.9686
300.9716
300.9741
300.976
300.9774
300.9783
300.9787
300.9787
300.9781
300.9771
300.9755
300.9733
300.9706
300.9671
300.963
300.9582
300.9525
300.946
300.9387
300.9304
300.9215
300.9136
300.9248
300.9322
300.9406
300.9483
300.955
300.9609
300.9659
300.9701
300.9736
300.9765
300.9789
300.9807
300.982
300.9829
300.9833
300.9832
300.9827
300.9817
300.9802
300.9781
300.9754
300.9721
300.9682
300.9635
300.958
300.9517
300.9445
300.9364
300.9277
300.92
300.9305
300.9378
300.946
300.9534
300.96
300.9657
300.9705
300.9745
300.9779
300.9807
300.9829
300.9846
300.9859
300.9867
300.9871
300.9871
300.9866
300.9856
300.9841
300.9821
300.9796
300.9764
300.9726
300.968
300.9627
300.9566
300.9496
300.9417
300.9331
300.9256
300.9356
300.9426
300.9506
300.9579
300.9642
300.9697
300.9744
300.9783
300.9816
300.9842
300.9864
300.988
300.9892
300.99
300.9904
300.9903
300.9898
300.9889
300.9875
300.9855
300.9831
300.98
300.9763
300.9719
300.9667
300.9607
300.9539
300.9461
300.9378
300.9303
300.9411
300.9471
300.9545
300.9616
300.9678
300.9731
300.9776
300.9814
300.9846
300.9871
300.9892
300.9907
300.9919
300.9927
300.993
300.993
300.9925
300.9916
300.9902
300.9884
300.9859
300.983
300.9793
300.975
300.9699
300.9641
300.9574
300.9498
300.9416
300.9343
300.9526
300.9525
300.958
300.9646
300.9706
300.9758
300.9802
300.9839
300.987
300.9895
300.9914
300.993
300.9941
300.9948
300.9952
300.9951
300.9947
300.9938
300.9924
300.9906
300.9883
300.9853
300.9817
300.9773
300.9722
300.9664
300.9597
300.952
300.9438
300.9367
301
300.9618
300.9615
300.9671
300.9729
300.978
300.9823
300.9859
300.9889
300.9913
300.9932
300.9947
300.9958
300.9965
300.9968
300.9968
300.9963
300.9955
300.9942
300.9924
300.99
300.9871
300.9832
300.9782
300.9725
300.9663
300.9588
300.9488
300.939
300.932
300.997
300.9628
300.9633
300.9689
300.9746
300.9796
300.9838
300.9873
300.9902
300.9926
300.9945
300.9959
300.997
300.9977
300.9981
300.998
300.9976
300.9967
300.9954
300.9937
300.9913
300.988
300.9832
300.9761
300.9679
300.9598
300.9481
300.9267
300.8933
300.8854
301.0194
300.9705
300.9659
300.9702
300.9757
300.9806
300.9848
300.9883
300.9912
300.9935
300.9954
300.9968
300.9978
300.9985
300.9989
300.9988
300.9984
300.9976
300.9963
300.9945
300.992
300.9883
300.9817
300.9707
300.9575
300.9454
300.9276
300.9023
300.867
300.8597
301.0283
300.974
300.9671
300.9709
300.9763
300.9811
300.9853
300.9887
300.9916
300.9939
300.9958
300.9972
300.9982
300.9989
300.9993
300.9992
300.9988
300.998
300.9967
300.9949
300.9924
300.9883
300.9808
300.9676
300.9519
300.9381
300.9181
300.8916
300.8556
300.8475
301.0297
300.9746
300.9673
300.971
300.9763
300.9811
300.9853
300.9887
300.9916
300.994
300.9959
300.9972
300.9982
300.9989
300.9993
300.9992
300.9988
300.998
300.9967
300.9949
300.9923
300.9882
300.9803
300.9665
300.9501
300.9359
300.9154
300.8886
300.8522
300.8433
301.026
300.9732
300.9665
300.9704
300.9757
300.9806
300.9848
300.9883
300.9912
300.9938
300.9959
300.997
300.9979
300.9986
300.9989
300.9988
300.9984
300.9975
300.9963
300.9945
300.9919
300.9878
300.9799
300.966
300.9496
300.9354
300.9149
300.8884
300.8531
300.8427
300.9929
300.9676
300.9645
300.9691
300.9746
300.9796
300.9838
300.9874
300.9905
300.9936
300.9966
300.997
300.9973
300.9978
300.9981
300.998
300.9976
300.9967
300.9954
300.9936
300.9911
300.987
300.9794
300.9661
300.9504
300.9366
300.917
300.8941
300.8799
300.8503
300.9962
300.9608
300.9613
300.9671
300.9729
300.978
300.9823
300.986
300.9894
300.9934
300.9975
300.9968
300.9963
300.9966
300.9968
300.9968
300.9963
300.9955
300.9942
300.9923
300.9898
300.986
300.9793
300.9682
300.9549
300.943
300.9276
300.915
300.9058
300.897
300.9498
300.9515
300.9578
300.9646
300.9706
300.9758
300.9802
300.9839
300.9872
300.9905
300.9935
300.994
300.9943
300.9949
300.9952
300.9951
300.9946
300.9938
300.9924
300.9906
300.9881
300.9848
300.9798
300.9726
300.9643
300.9563
300.9471
300.9385
300.9302
300.9229
300.9403
300.9468
300.9544
300.9615
300.9677
300.9731
300.9776
300.9814
300.9846
300.9874
300.9897
300.991
300.9919
300.9927
300.993
300.9929
300.9925
300.9916
300.9902
300.9883
300.9859
300.9828
300.9788
300.9736
300.9677
300.9614
300.9543
300.9468
300.939
300.9314
300.9354
300.9426
300.9505
300.9578
300.9642
300.9697
300.9743
300.9783
300.9815
300.9842
300.9864
300.988
300.9892
300.99
300.9903
300.9903
300.9898
300.9889
300.9874
300.9855
300.983
300.9799
300.9761
300.9715
300.9662
300.9602
300.9537
300.9469
300.9399
300.9315
300.9304
300.9378
300.9459
300.9534
300.96
300.9656
300.9704
300.9745
300.9779
300.9807
300.9829
300.9846
300.9859
300.9867
300.9871
300.987
300.9865
300.9856
300.9841
300.9821
300.9795
300.9763
300.9725
300.9679
300.9626
300.9566
300.9502
300.9443
300.9384
300.929
300.9247
300.9322
300.9405
300.9482
300.955
300.9608
300.9658
300.97
300.9736
300.9765
300.9788
300.9806
300.9819
300.9828
300.9832
300.9832
300.9826
300.9816
300.9801
300.978
300.9754
300.9721
300.9681
300.9634
300.958
300.9517
300.9449
300.9378
300.9305
300.9218
300.9182
300.9258
300.9343
300.9422
300.9492
300.9552
300.9604
300.9648
300.9685
300.9716
300.974
300.9759
300.9773
300.9782
300.9787
300.9786
300.978
300.977
300.9754
300.9732
300.9705
300.9671
300.9629
300.9581
300.9525
300.946
300.9387
300.9307
300.9222
300.9141
300.9107
300.9185
300.9273
300.9354
300.9425
300.9488
300.9542
300.9587
300.9626
300.9658
300.9684
300.9704
300.9719
300.9728
300.9733
300.9733
300.9727
300.9716
300.9699
300.9677
300.9648
300.9612
300.957
300.9519
300.9461
300.9394
300.9319
300.9234
300.9144
300.9064
300.9023
300.9103
300.9192
300.9276
300.935
300.9414
300.947
300.9518
300.9559
300.9592
300.9619
300.964
300.9656
300.9666
300.9671
300.9671
300.9665
300.9653
300.9636
300.9612
300.9582
300.9545
300.9501
300.9449
300.9389
300.932
300.9242
300.9155
300.9062
300.898
300.8931
300.9012
300.9103
300.9189
300.9265
300.9332
300.939
300.944
300.9482
300.9518
300.9546
300.9568
300.9585
300.9596
300.9601
300.96
300.9594
300.9582
300.9564
300.9539
300.9508
300.9469
300.9423
300.9369
300.9307
300.9236
300.9156
300.9067
300.8972
300.8889
300.8832
300.8915
300.9008
300.9096
300.9174
300.9243
300.9303
300.9355
300.9399
300.9436
300.9466
300.9489
300.9507
300.9518
300.9524
300.9523
300.9517
300.9504
300.9485
300.946
300.9427
300.9387
300.9339
300.9284
300.922
300.9147
300.9065
300.8974
300.8877
300.8792
300.8746
300.883
300.8925
300.9014
300.9094
300.9165
300.9226
300.928
300.9325
300.9364
300.9395
300.9419
300.9437
300.9449
300.9455
300.9454
300.9447
300.9434
300.9415
300.9388
300.9355
300.9314
300.9265
300.9208
300.9142
300.9068
300.8984
300.8891
300.8793
300.8707
)
;

boundaryField
{
    fmaxY
    {
        type            zeroGradient;
    }
    fminX
    {
        type            zeroGradient;
    }
    fmaxX
    {
        type            zeroGradient;
    }
    fminY
    {
        type            zeroGradient;
    }
    fminZ
    {
        type            externalWallHeatFluxTemperature;
        mode            coefficient;
        kappaMethod     solidThermo;
        kappa           none;
        h               constant 1000000;
        Ta              uniform 313;
        thicknessLayers List<scalar> 2(1 2);
        kappaLayers     List<scalar> 2(100 200);
        qr              none;
        refValue        uniform 313;
        refGradient     uniform 0;
        valueFraction   nonuniform List<scalar> 
900
(
0.04950261
0.04950261
0.04950261
0.04950261
0.04950261
0.04950261
0.04950261
0.04950261
0.04950261
0.04950261
0.04950261
0.04950261
0.04950261
0.04950261
0.04950261
0.04950261
0.04950261
0.04950261
0.04950261
0.04950261
0.04950261
0.04950261
0.04950261
0.04950261
0.04950261
0.04950261
0.04950261
0.04950261
0.04950261
0.04950261
0.04950261
0.04950261
0.04950261
0.04950261
0.04950261
0.04950261
0.04950261
0.04950261
0.04950261
0.04950261
0.04950261
0.04950261
0.04950261
0.04950261
0.04950261
0.04950261
0.04950261
0.04950261
0.04950261
0.04950261
0.04950261
0.04950261
0.04950261
0.04950261
0.04950261
0.04950261
0.04950261
0.04950261
0.04950261
0.04950261
0.04950261
0.04950261
0.04950261
0.04950261
0.04950261
0.04950261
0.04950261
0.04950261
0.04950261
0.04950261
0.04950261
0.04950261
0.04950261
0.04950261
0.04950261
0.04950261
0.04950261
0.04950261
0.04950261
0.04950261
0.04950261
0.04950261
0.04950261
0.04950261
0.04950261
0.04950261
0.04950261
0.04950261
0.04950261
0.04950261
0.04950261
0.04950261
0.04950261
0.04950261
0.04950261
0.04950261
0.04950261
0.04950261
0.04950261
0.04950261
0.04950261
0.04950261
0.04950261
0.04950261
0.04950261
0.04950261
0.04950261
0.04950261
0.04950261
0.04950261
0.04950261
0.04950261
0.04950261
0.04950261
0.04950261
0.04950261
0.04950261
0.04950261
0.04950261
0.04950261
0.04950261
0.04950261
0.04950261
0.04950261
0.04950261
0.04950261
0.04950261
0.04950261
0.04950261
0.04950261
0.04950261
0.04950261
0.04950261
0.04950261
0.04950261
0.04950261
0.04950261
0.04950261
0.04950261
0.04950261
0.04950261
0.04950261
0.04950261
0.04950261
0.04950261
0.04950261
0.04950261
0.04950261
0.04950261
0.04950261
0.04950261
0.04950261
0.04950261
0.04950261
0.04950261
0.04950261
0.04950261
0.04950261
0.04950261
0.04950261
0.04950261
0.04950261
0.04950261
0.04950261
0.04950261
0.04950261
0.04950261
0.04950261
0.04950261
0.04950261
0.04950261
0.04950261
0.04950261
0.04950261
0.04950261
0.04950261
0.04950261
0.04950261
0.04950261
0.04950261
0.04950261
0.04950261
0.04950261
0.04950261
0.04950261
0.04950261
0.04950261
0.04950261
0.04950261
0.04950261
0.04950261
0.04950261
0.04950261
0.04950261
0.04950261
0.04950261
0.04950261
0.04950261
0.04950261
0.04950261
0.04950261
0.04950261
0.04950261
0.04950261
0.04950261
0.04950261
0.04950261
0.04950261
0.04950261
0.04950261
0.04950261
0.04950261
0.04950261
0.04950261
0.04950261
0.04950261
0.04950261
0.04950261
0.04950261
0.04950261
0.04950261
0.04950261
0.04950261
0.04950261
0.04950261
0.04950261
0.04950261
0.04950261
0.04950261
0.04950261
0.04950261
0.04950261
0.04950261
0.04950261
0.04950261
0.04950261
0.04950261
0.04950261
0.04950261
0.04950261
0.04950261
0.04950261
0.04950261
0.04950261
0.04950261
0.04950261
0.04950261
0.04950261
0.04950261
0.04950261
0.04950261
0.04950261
0.04950261
0.04950261
0.04950261
0.04950261
0.04950261
0.04950261
0.04950261
0.04950261
0.04950261
0.04950261
0.04950261
0.04950261
0.04950261
0.04950261
0.04950261
0.04950261
0.04950261
0.04950261
0.04950261
0.04950261
0.04950261
0.04950261
0.04950261
0.04950261
0.04950261
0.04950261
0.04950261
0.04950261
0.04950261
0.04950261
0.04950261
0.04950261
0.04950261
0.04950261
0.04950261
0.04950261
0.04950261
0.04950261
0.04950261
0.04950261
0.04950261
0.04950261
0.04950261
0.04950261
0.04950261
0.04950261
0.04950261
0.04950261
0.04950261
0.04950261
0.04950261
0.04950261
0.04950261
0.04950261
0.04950261
0.04950261
0.04950261
0.04950261
0.04950261
0.04950261
0.04950261
0.04950261
0.04950261
0.04950261
0.04950261
0.04950261
0.04950261
0.04950261
0.04950261
0.04950261
0.04950261
0.04950261
0.04950261
0.04950261
0.04950261
0.04950261
0.04950261
0.04950261
0.04950261
0.04950261
0.04950261
0.04950261
0.04950261
0.04950261
0.04950261
0.04950261
0.04950261
0.04950261
0.04950261
0.04950261
0.04950261
0.04950261
0.04950261
0.04950261
0.04950261
0.04950261
0.04950261
0.04950261
0.04950261
0.04950261
0.04950261
0.04950261
0.04950261
0.04950261
0.04950261
0.04950261
0.04950261
0.04950261
0.04950261
0.04950261
0.04950261
0.04950261
0.04950261
0.04950261
0.04950261
0.04950261
0.04950261
0.04950261
0.04950261
0.04950261
0.04950261
0.04950261
0.04950261
0.04950261
0.04950261
0.04950261
0.04950261
0.04950261
0.04950261
0.04950261
0.04950261
0.04950261
0.04950261
0.04950261
0.04950261
0.04950261
0.04950261
0.04950261
0.04950261
0.04950261
0.04950261
0.04950261
0.04950261