/*--------------------------------*- C++ -*----------------------------------*\
| =========                 |                                                 |
| \\      /  F ield         | OpenFOAM: The Open Source CFD Toolbox           |
|  \\    /   O peration     | Version:  2506                                  |
|   \\  /    A nd           | Website:  www.openfoam.com                      |
|    \\/     M anipulation  |                                                 |
\*---------------------------------------------------------------------------*/
FoamFile
{
    version     2.0;
    format      ascii;
    arch        "LSB;label=32;scalar=64";
    class       volScalarField;
    location    "3000/floor";
    object      T;
}
// * * * * * * * * * * * * * * * * * * * * * * * * * * * * * * * * * * * * * //

dimensions      [0 0 0 1 0 0 0];

internalField   nonuniform List<scalar> 
2700
(
301.57
301.572
301.5744
301.5766
301.5787
301.5804
301.582
301.5834
301.5846
301.5856
301.5863
301.587
301.5874
301.5878
301.5879
301.5879
301.5877
301.5874
301.5869
301.5862
301.5854
301.5844
301.5831
301.5817
301.58
301.5781
301.576
301.5736
301.5712
301.5692
301.572
301.574
301.5763
301.5785
301.5805
301.5823
301.5838
301.5852
301.5863
301.5872
301.588
301.5886
301.5891
301.5894
301.5895
301.5895
301.5894
301.589
301.5886
301.5879
301.5871
301.5861
301.5849
301.5834
301.5818
301.58
301.5779
301.5756
301.5731
301.5711
301.5744
301.5764
301.5787
301.5809
301.5828
301.5845
301.586
301.5873
301.5884
301.5893
301.59
301.5906
301.591
301.5913
301.5914
301.5914
301.5913
301.591
301.5905
301.5899
301.5891
301.5881
301.5869
301.5856
301.584
301.5822
301.5802
301.5779
301.5755
301.5735
301.5768
301.5787
301.5809
301.5831
301.5849
301.5866
301.588
301.5892
301.5903
301.5911
301.5918
301.5924
301.5928
301.5931
301.5932
301.5932
301.593
301.5928
301.5923
301.5917
301.591
301.59
301.5889
301.5876
301.586
301.5843
301.5823
301.5801
301.5778
301.5758
301.5789
301.5807
301.5829
301.585
301.5868
301.5884
301.5898
301.591
301.592
301.5928
301.5935
301.594
301.5944
301.5946
301.5947
301.5947
301.5946
301.5943
301.5939
301.5933
301.5926
301.5917
301.5906
301.5893
301.5878
301.5862
301.5842
301.5821
301.5798
301.5779
301.5808
301.5826
301.5847
301.5867
301.5885
301.59
301.5914
301.5925
301.5934
301.5942
301.5949
301.5953
301.5957
301.5959
301.5961
301.5961
301.5959
301.5957
301.5953
301.5947
301.594
301.5932
301.5921
301.5909
301.5894
301.5878
301.5859
301.5838
301.5816
301.5797
301.5824
301.5842
301.5863
301.5882
301.59
301.5914
301.5927
301.5938
301.5947
301.5955
301.5961
301.5965
301.5969
301.5971
301.5972
301.5972
301.5971
301.5968
301.5964
301.5959
301.5952
301.5944
301.5934
301.5922
301.5908
301.5892
301.5874
301.5853
301.5832
301.5814
301.5838
301.5856
301.5876
301.5895
301.5912
301.5927
301.5939
301.5949
301.5958
301.5965
301.5971
301.5975
301.5978
301.5981
301.5982
301.5982
301.598
301.5978
301.5974
301.5969
301.5963
301.5955
301.5945
301.5934
301.592
301.5904
301.5887
301.5867
301.5845
301.5827
301.5851
301.5868
301.5888
301.5907
301.5923
301.5937
301.5949
301.5959
301.5967
301.5974
301.5979
301.5983
301.5986
301.5989
301.599
301.599
301.5988
301.5986
301.5983
301.5978
301.5972
301.5964
301.5954
301.5943
301.593
301.5915
301.5897
301.5878
301.5857
301.584
301.5864
301.5879
301.5898
301.5916
301.5932
301.5945
301.5957
301.5966
301.5974
301.5981
301.5986
301.599
301.5993
301.5995
301.5996
301.5996
301.5995
301.5993
301.5989
301.5985
301.5979
301.5971
301.5962
301.5951
301.5938
301.5923
301.5906
301.5887
301.5867
301.5849
301.5889
301.5891
301.5906
301.5923
301.5939
301.5952
301.5963
301.5973
301.598
301.5987
301.5992
301.5996
301.5998
301.6
301.6001
301.6001
301.6
301.5998
301.5995
301.599
301.5984
301.5977
301.5968
301.5957
301.5944
301.5929
301.5912
301.5893
301.5873
301.5857
301.5955
301.5912
301.5915
301.593
301.5944
301.5957
301.5968
301.5977
301.5985
301.5991
301.5996
301.6
301.6003
301.6004
301.6005
301.6005
301.6004
301.6002
301.5999
301.5995
301.5989
301.5981
301.5971
301.5956
301.594
301.5925
301.5908
301.5889
301.587
301.5856
301.5941
301.5915
301.592
301.5934
301.5949
301.5961
301.5972
301.5981
301.5988
301.5994
301.5999
301.6003
301.6006
301.6007
301.6008
301.6008
301.6007
301.6005
301.6002
301.5998
301.5992
301.5983
301.5967
301.5937
301.5907
301.5886
301.5863
301.5839
301.5823
301.5817
301.6033
301.5944
301.5928
301.5938
301.5951
301.5964
301.5975
301.5983
301.5991
301.5997
301.6001
301.6005
301.6008
301.6009
301.601
301.601
301.6009
301.6007
301.6004
301.6
301.5993
301.5982
301.5952
301.5887
301.5816
301.5777
301.5728
301.57
301.5691
301.5697
301.6066
301.5956
301.5931
301.5939
301.5953
301.5965
301.5976
301.5985
301.5992
301.5998
301.6002
301.6006
301.6009
301.601
301.6011
301.6011
301.601
301.6008
301.6005
301.6001
301.5994
301.5981
301.5946
301.5866
301.5779
301.5736
301.568
301.565
301.5634
301.5628
301.6071
301.5958
301.5931
301.5939
301.5953
301.5965
301.5976
301.5985
301.5992
301.5998
301.6003
301.6006
301.6009
301.601
301.6011
301.6011
301.601
301.6008
301.6005
301.6001
301.5994
301.5981
301.5944
301.5861
301.5771
301.5726
301.567
301.5639
301.5619
301.5605
301.6064
301.5954
301.5929
301.5938
301.5951
301.5964
301.5975
301.5983
301.5991
301.5997
301.6003
301.6006
301.6008
301.6009
301.601
301.601
301.6009
301.6007
301.6004
301.6
301.5993
301.5979
301.5943
301.586
301.577
301.5725
301.5669
301.5637
301.5616
301.56
301.6028
301.594
301.5924
301.5935
301.5949
301.5961
301.5972
301.5981
301.5989
301.5999
301.6012
301.6007
301.6006
301.6007
301.6008
301.6008
301.6007
301.6005
301.6002
301.5998
301.5991
301.5978
301.5942
301.5862
301.5775
301.5731
301.5676
301.5644
301.5623
301.5606
301.5923
301.5906
301.5914
301.593
301.5944
301.5957
301.5968
301.5978
301.5987
301.6004
301.6034
301.6012
301.6005
301.6005
301.6005
301.6005
301.6004
301.6002
301.5999
301.5994
301.5988
301.5976
301.5946
301.5881
301.5809
301.5771
301.5721
301.5696
301.5675
301.5658
301.5877
301.5889
301.5906
301.5923
301.5939
301.5952
301.5963
301.5973
301.5981
301.5991
301.6004
301.6
301.5999
301.6
301.6001
301.6001
301.6
301.5998
301.5995
301.599
301.5984
301.5975
301.5958
301.5929
301.5897
301.5876
301.5853
301.5833
301.5813
301.5796
301.5862
301.5878
301.5898
301.5916
301.5931
301.5945
301.5957
301.5966
301.5974
301.5982
301.5988
301.5991
301.5993
301.5995
301.5996
301.5996
301.5995
301.5993
301.5989
301.5985
301.5978
301.597
301.596
301.5945
301.5928
301.5912
301.5895
301.5877
301.5859
301.584
301.5851
301.5868
301.5888
301.5906
301.5923
301.5937
301.5948
301.5958
301.5967
301.5974
301.5979
301.5983
301.5986
301.5988
301.5989
301.5989
301.5988
301.5986
301.5982
301.5978
301.5971
301.5963
301.5954
301.5942
301.5928
301.5913
301.5897
301.5884
301.5875
301.5847
301.5838
301.5855
301.5876
301.5895
301.5912
301.5926
301.5939
301.5949
301.5958
301.5965
301.597
301.5975
301.5978
301.598
301.5981
301.5981
301.598
301.5978
301.5974
301.5969
301.5962
301.5954
301.5945
301.5933
301.592
301.5905
301.589
301.5886
301.5896
301.5851
301.5824
301.5841
301.5863
301.5882
301.5899
301.5914
301.5927
301.5938
301.5947
301.5954
301.596
301.5965
301.5968
301.597
301.5972
301.5972
301.597
301.5968
301.5964
301.5959
301.5952
301.5944
301.5934
301.5922
301.5908
301.5892
301.5875
301.5861
301.5851
301.5823
301.5807
301.5825
301.5847
301.5867
301.5885
301.59
301.5913
301.5924
301.5934
301.5942
301.5948
301.5953
301.5957
301.5959
301.596
301.596
301.5959
301.5956
301.5952
301.5947
301.594
301.5931
301.5921
301.5908
301.5894
301.5878
301.5859
301.584
301.582
301.5799
301.5788
301.5807
301.5829
301.585
301.5868
301.5884
301.5898
301.5909
301.5919
301.5927
301.5934
301.5939
301.5943
301.5946
301.5947
301.5947
301.5945
301.5943
301.5938
301.5933
301.5925
301.5916
301.5906
301.5893
301.5878
301.5861
301.5842
301.5821
301.5798
301.5779
301.5767
301.5786
301.5809
301.583
301.5849
301.5865
301.588
301.5892
301.5902
301.5911
301.5918
301.5923
301.5927
301.593
301.5931
301.5931
301.593
301.5927
301.5922
301.5917
301.5909
301.5899
301.5888
301.5875
301.586
301.5842
301.5822
301.58
301.5777
301.5758
301.5744
301.5763
301.5786
301.5808
301.5827
301.5844
301.5859
301.5872
301.5883
301.5892
301.5899
301.5905
301.5909
301.5912
301.5914
301.5913
301.5912
301.5909
301.5904
301.5898
301.589
301.588
301.5869
301.5855
301.5839
301.5821
301.5801
301.5778
301.5755
301.5735
301.5719
301.5739
301.5763
301.5785
301.5805
301.5822
301.5838
301.5851
301.5862
301.5872
301.5879
301.5885
301.589
301.5893
301.5894
301.5894
301.5893
301.5889
301.5885
301.5878
301.587
301.586
301.5848
301.5834
301.5817
301.5799
301.5778
301.5755
301.5731
301.5711
301.5699
301.5719
301.5743
301.5765
301.5786
301.5804
301.5819
301.5833
301.5845
301.5855
301.5863
301.5869
301.5873
301.5877
301.5878
301.5878
301.5876
301.5873
301.5868
301.5862
301.5853
301.5843
301.583
301.5816
301.5799
301.578
301.5759
301.5736
301.5711
301.5691
300.8878
300.8915
300.8958
300.8998
300.9034
300.9066
300.9094
300.9118
300.9138
300.9156
300.917
300.9181
300.9189
300.9194
300.9197
300.9197
300.9194
300.9188
300.9179
300.9168
300.9152
300.9134
300.9112
300.9086
300.9057
300.9023
300.8986
300.8944
300.89
300.8862
300.8916
300.8952
300.8994
300.9034
300.9069
300.91
300.9127
300.9151
300.9171
300.9187
300.9201
300.9211
300.9219
300.9225
300.9227
300.9227
300.9224
300.9219
300.921
300.9199
300.9184
300.9166
300.9144
300.9119
300.9091
300.9058
300.9021
300.898
300.8937
300.8899
300.896
300.8996
300.9037
300.9075
300.911
300.914
300.9166
300.9188
300.9208
300.9224
300.9237
300.9247
300.9254
300.9259
300.9262
300.9261
300.9259
300.9253
300.9245
300.9234
300.922
300.9203
300.9182
300.9158
300.913
300.9098
300.9062
300.9022
300.8979
300.8943
300.9001
300.9036
300.9077
300.9114
300.9148
300.9177
300.9202
300.9223
300.9242
300.9257
300.9269
300.9279
300.9286
300.9291
300.9293
300.9293
300.929
300.9285
300.9277
300.9267
300.9253
300.9236
300.9216
300.9193
300.9166
300.9135
300.91
300.9061
300.9019
300.8983
300.9039
300.9073
300.9113
300.9149
300.9181
300.9209
300.9234
300.9254
300.9272
300.9286
300.9298
300.9307
300.9314
300.9318
300.932
300.932
300.9318
300.9313
300.9305
300.9295
300.9282
300.9266
300.9247
300.9224
300.9198
300.9168
300.9134
300.9096
300.9055
300.902
300.9072
300.9106
300.9144
300.918
300.9211
300.9238
300.9261
300.9281
300.9298
300.9312
300.9323
300.9331
300.9338
300.9342
300.9344
300.9344
300.9341
300.9337
300.9329
300.932
300.9307
300.9292
300.9274
300.9252
300.9226
300.9197
300.9164
300.9127
300.9087
300.9053
300.9101
300.9134
300.9172
300.9206
300.9237
300.9263
300.9285
300.9304
300.932
300.9333
300.9344
300.9352
300.9358
300.9362
300.9364
300.9364
300.9361
300.9357
300.935
300.9341
300.9329
300.9314
300.9296
300.9275
300.9251
300.9223
300.919
300.9154
300.9115
300.9081
300.9127
300.9159
300.9196
300.9229
300.9259
300.9284
300.9306
300.9324
300.9339
300.9352
300.9362
300.937
300.9375
300.9379
300.9381
300.9381
300.9379
300.9374
300.9368
300.9359
300.9347
300.9333
300.9316
300.9296
300.9272
300.9244
300.9213
300.9177
300.9139
300.9106
300.9149
300.918
300.9216
300.9249
300.9278
300.9302
300.9323
300.9341
300.9355
300.9367
300.9377
300.9384
300.939
300.9393
300.9395
300.9395
300.9393
300.9389
300.9383
300.9374
300.9363
300.9349
300.9332
300.9313
300.9289
300.9263
300.9232
300.9197
300.916
300.9127
300.9172
300.9199
300.9233
300.9265
300.9293
300.9317
300.9338
300.9354
300.9369
300.938
300.9389
300.9396
300.9402
300.9405
300.9407
300.9407
300.9405
300.9401
300.9395
300.9386
300.9376
300.9362
300.9346
300.9327
300.9304
300.9278
300.9248
300.9214
300.9177
300.9145
300.922
300.9222
300.9249
300.9279
300.9306
300.9329
300.9349
300.9366
300.9379
300.939
300.9399
300.9406
300.9411
300.9414
300.9416
300.9416
300.9414
300.941
300.9404
300.9396
300.9386
300.9373
300.9357
300.9337
300.9314
300.9288
300.9259
300.9225
300.9189
300.9158
300.9378
300.9261
300.9263
300.929
300.9316
300.9339
300.9358
300.9374
300.9388
300.9398
300.9407
300.9413
300.9418
300.9422
300.9423
300.9423
300.9421
300.9418
300.9412
300.9404
300.9394
300.938
300.9363
300.9339
300.9312
300.9285
300.9254
300.9218
300.9184
300.9156
300.9306
300.9261
300.9271
300.9298
300.9323
300.9346
300.9365
300.9381
300.9394
300.9404
300.9413
300.9419
300.9424
300.9427
300.9429
300.9428
300.9427
300.9423
300.9417
300.941
300.9399
300.9384
300.9359
300.9315
300.9266
300.923
300.9184
300.9111
300.9079
300.9062
300.9497
300.9309
300.9284
300.9304
300.9328
300.9351
300.9369
300.9385
300.9398
300.9408
300.9416
300.9423
300.9427
300.943
300.9432
300.9432
300.943
300.9427
300.9421
300.9413
300.9402
300.9383
300.9341
300.9249
300.9137
300.907
300.8958
300.8873
300.8847
300.8846
300.9551
300.9327
300.9289
300.9307
300.9331
300.9353
300.9371
300.9387
300.94
300.941
300.9418
300.9424
300.9429
300.9432
300.9434
300.9434
300.9432
300.9428
300.9423
300.9415
300.9404
300.9383
300.9333
300.922
300.9087
300.9011
300.8885
300.8795
300.8762
300.8744
300.9559
300.933
300.929
300.9307
300.9331
300.9353
300.9371
300.9387
300.94
300.941
300.9418
300.9424
300.9429
300.9432
300.9434
300.9434
300.9432
300.9428
300.9423
300.9415
300.9404
300.9383
300.933
300.9214
300.9076
300.8998
300.887
300.8779
300.8741
300.8713
300.9548
300.9324
300.9287
300.9304
300.9328
300.935
300.9369
300.9385
300.9398
300.9409
300.942
300.9424
300.9427
300.943
300.9432
300.9432
300.943
300.9426
300.9421
300.9413
300.9402
300.9381
300.9328
300.9211
300.9073
300.8995
300.8868
300.8776
300.8736
300.8706
300.9489
300.9302
300.9278
300.9298
300.9323
300.9346
300.9365
300.9381
300.9395
300.9411
300.9433
300.9426
300.9425
300.9427
300.9428
300.9428
300.9426
300.9423
300.9417
300.9409
300.9398
300.9377
300.9326
300.9214
300.908
300.9003
300.8877
300.8788
300.8748
300.8717
300.9302
300.9247
300.9262
300.929
300.9316
300.9339
300.9358
300.9375
300.9391
300.9418
300.9468
300.9434
300.9422
300.9422
300.9423
300.9423
300.9421
300.9417
300.9412
300.9404
300.9392
300.9373
300.933
300.9237
300.9126
300.9058
300.8948
300.8897
300.8859
300.8828
300.9196
300.9216
300.9248
300.9279
300.9306
300.9329
300.9349
300.9366
300.938
300.9397
300.9419
300.9413
300.9412
300.9414
300.9416
300.9416
300.9414
300.941
300.9404
300.9396
300.9385
300.937
300.9344
300.9299
300.925
300.9213
300.9169
300.9132
300.9096
300.9064
300.9168
300.9198
300.9233
300.9265
300.9293
300.9317
300.9337
300.9354
300.9369
300.9381
300.9393
300.9397
300.9401
300.9405
300.9406
300.9406
300.9404
300.94
300.9394
300.9386
300.9375
300.9361
300.9343
300.9318
300.929
300.9262
300.9231
300.9199
300.9166
300.913
300.9148
300.918
300.9216
300.9249
300.9277
300.9302
300.9323
300.934
300.9355
300.9367
300.9377
300.9384
300.9389
300.9393
300.9395
300.9395
300.9392
300.9388
300.9382
300.9374
300.9362
300.9349
300.9332
300.9311
300.9287
300.926
300.9232
300.9206
300.9185
300.9138
300.9126
300.9158
300.9195
300.9229
300.9258
300.9284
300.9305
300.9324
300.9339
300.9351
300.9361
300.9369
300.9375
300.9379
300.938
300.938
300.9378
300.9374
300.9367
300.9358
300.9347
300.9333
300.9315
300.9295
300.9271
300.9244
300.9218
300.9205
300.9212
300.9139
300.9101
300.9134
300.9171
300.9206
300.9236
300.9262
300.9285
300.9304
300.932
300.9333
300.9343
300.9351
300.9357
300.9361
300.9363
300.9363
300.9361
300.9356
300.935
300.934
300.9328
300.9314
300.9296
300.9275
300.925
300.9222
300.9192
300.9164
300.9143
300.9094
300.9071
300.9105
300.9143
300.9179
300.921
300.9237
300.9261
300.928
300.9297
300.9311
300.9322
300.933
300.9337
300.9341
300.9343
300.9343
300.934
300.9336
300.9329
300.9319
300.9307
300.9291
300.9273
300.9251
300.9226
300.9197
300.9164
300.9129
300.9092
300.9055
300.9038
300.9072
300.9112
300.9148
300.918
300.9209
300.9233
300.9253
300.9271
300.9285
300.9297
300.9306
300.9313
300.9317
300.9319
300.9319
300.9317
300.9312
300.9304
300.9294
300.9281
300.9265
300.9246
300.9224
300.9197
300.9167
300.9133
300.9096
300.9055
300.902
300.9
300.9036
300.9076
300.9113
300.9147
300.9176
300.9201
300.9222
300.9241
300.9256
300.9268
300.9278
300.9285
300.929
300.9292
300.9292
300.9289
300.9284
300.9276
300.9266
300.9252
300.9235
300.9215
300.9192
300.9165
300.9134
300.9099
300.906
300.9018
300.8983
300.8959
300.8995
300.9036
300.9075
300.9109
300.9139
300.9165
300.9187
300.9207
300.9223
300.9235
300.9245
300.9253
300.9258
300.926
300.926
300.9257
300.9252
300.9244
300.9233
300.9219
300.9202
300.9181
300.9157
300.9129
300.9097
300.9061
300.9021
300.8978
300.8942
300.8915
300.8951
300.8993
300.9033
300.9068
300.9099
300.9126
300.9149
300.9169
300.9186
300.92
300.921
300.9218
300.9223
300.9226
300.9226
300.9223
300.9217
300.9209
300.9197
300.9183
300.9165
300.9143
300.9118
300.909
300.9057
300.902
300.8979
300.8936
300.8898
300.8877
300.8914
300.8957
300.8997
300.9033
300.9065
300.9092
300.9116
300.9137
300.9155
300.9169
300.9179
300.9188
300.9193
300.9196
300.9196
300.9193
300.9187
300.9178
300.9166
300.9151
300.9133
300.9111
300.9085
300.9056
300.9022
300.8985
300.8943
300.8899
300.8861
300.6022
300.6096
300.6177
300.6253
300.632
300.638
300.6432
300.6477
300.6515
300.6548
300.6574
300.6594
300.661
300.662
300.6625
300.6624
300.6619
300.6608
300.6591
300.6569
300.6541
300.6506
300.6465
300.6416
300.6361
300.6298
300.6228
300.615
300.6065
300.5989
300.6098
300.6171
300.6251
300.6325
300.6391
300.6449
300.65
300.6543
300.6581
300.6612
300.6637
300.6657
300.6671
300.6681
300.6686
300.6685
300.668
300.6669
300.6653
300.6632
300.6604
300.6571
300.653
300.6484
300.643
300.6368
300.6299
300.6222
300.6139
300.6064
300.6182
300.6254
300.6332
300.6404
300.6468
300.6525
300.6574
300.6615
300.6651
300.6681
300.6705
300.6724
300.6738
300.6747
300.6751
300.6751
300.6746
300.6735
300.672
300.67
300.6673
300.6641
300.6602
300.6557
300.6504
300.6445
300.6377
300.6302
300.6221
300.6147
300.626
300.633
300.6407
300.6477
300.654
300.6594
300.6641
300.6681
300.6715
300.6744
300.6767
300.6784
300.6797
300.6806
300.681
300.681
300.6805
300.6795
300.6781
300.6761
300.6736
300.6704
300.6667
300.6623
300.6573
300.6515
300.6449
300.6376
300.6296
300.6224
300.633
300.6399
300.6474
300.6543
300.6603
300.6655
300.6701
300.6739
300.6772
300.6799
300.682
300.6837
300.685
300.6858
300.6862
300.6861
300.6857
300.6847
300.6833
300.6814
300.679
300.676
300.6724
300.6682
300.6633
300.6577
300.6513
300.6441
300.6364
300.6293
300.6393
300.646
300.6533
300.66
300.6658
300.6709
300.6753
300.679
300.6821
300.6846
300.6867
300.6883
300.6895
300.6902
300.6906
300.6906
300.6901
300.6892
300.6879
300.6861
300.6838
300.6809
300.6774
300.6733
300.6686
300.6631
300.6569
300.6499
300.6423
300.6354
300.6448
300.6514
300.6585
300.665
300.6707
300.6756
300.6798
300.6833
300.6863
300.6887
300.6907
300.6922
300.6933
300.694
300.6944
300.6944
300.6939
300.6931
300.6918
300.6901
300.6878
300.6851
300.6817
300.6778
300.6732
300.6679
300.6618
300.655
300.6476
300.6408
300.6495
300.656
300.663
300.6693
300.6748
300.6796
300.6836
300.687
300.6899
300.6922
300.6941
300.6955
300.6966
300.6973
300.6976
300.6976
300.6971
300.6963
300.6951
300.6934
300.6913
300.6886
300.6854
300.6816
300.6771
300.672
300.6661
300.6594
300.6521
300.6454
300.6537
300.6601
300.6669
300.673
300.6784
300.683
300.6869
300.6902
300.6929
300.6951
300.6969
300.6983
300.6993
300.7
300.7003
300.7002
300.6998
300.6991
300.6979
300.6963
300.6942
300.6916
300.6885
300.6848
300.6804
300.6754
300.6697
300.6631
300.656
300.6494
300.6579
300.6636
300.6701
300.6761
300.6813
300.6858
300.6896
300.6928
300.6954
300.6975
300.6992
300.7005
300.7015
300.7022
300.7025
300.7024
300.702
300.7013
300.7002
300.6986
300.6966
300.6941
300.691
300.6874
300.6832
300.6783
300.6726
300.6663
300.6592
300.6528
300.6667
300.6676
300.6729
300.6786
300.6837
300.6881
300.6918
300.6948
300.6974
300.6995
300.7011
300.7024
300.7033
300.7039
300.7042
300.7042
300.7038
300.7031
300.702
300.7005
300.6985
300.6961
300.6931
300.6894
300.6852
300.6804
300.6748
300.6685
300.6616
300.6553
300.7088
300.6747
300.6755
300.6807
300.6856
300.6899
300.6935
300.6965
300.699
300.701
300.7026
300.7038
300.7047
300.7053
300.7056
300.7056
300.7052
300.7045
300.7034
300.7019
300.7
300.6975
300.6944
300.6902
300.6855
300.6805
300.6747
300.6674
300.6607
300.6548
300.6809
300.674
300.677
300.6821
300.687
300.6912
300.6947
300.6977
300.7001
300.7021
300.7036
300.7048
300.7057
300.7063
300.7066
300.7066
300.7062
300.7055
300.7045
300.703
300.701
300.6984
300.6943
300.6877
300.68
300.6737
300.6645
300.6368
300.6297
300.6249
300.7264
300.6819
300.679
300.6832
300.6879
300.6921
300.6955
300.6985
300.7009
300.7028
300.7043
300.7055
300.7064
300.707
300.7073
300.7072
300.7069
300.7062
300.7051
300.7037
300.7017
300.6986
300.6924
300.6797
300.6637
300.6525
300.6304
300.5995
300.5931
300.5903
300.7351
300.6845
300.6799
300.6837
300.6884
300.6925
300.696
300.6988
300.7012
300.7032
300.7047
300.7058
300.7067
300.7073
300.7076
300.7075
300.7072
300.7065
300.7055
300.704
300.702
300.6987
300.6915
300.6764
300.6574
300.6449
300.6203
300.5887
300.5813
300.5766
300.7362
300.6849
300.6799
300.6838
300.6884
300.6925
300.696
300.6988
300.7012
300.7032
300.7047
300.7059
300.7067
300.7073
300.7076
300.7075
300.7072
300.7065
300.7055
300.704
300.702
300.6986
300.6912
300.6756
300.656
300.6433
300.6184
300.5866
300.5785
300.5727
300.7345
300.684
300.6793
300.6833
300.6879
300.6921
300.6955
300.6985
300.7009
300.703
300.7048
300.7057
300.7064
300.707
300.7072
300.7072
300.7069
300.7062
300.7051
300.7037
300.7016
300.6982
300.6909
300.6752
300.6556
300.6428
300.6179
300.5861
300.5778
300.5716
300.7257
300.6807
300.6779
300.6822
300.687
300.6912
300.6947
300.6977
300.7003
300.703
300.7064
300.7058
300.7059
300.7063
300.7066
300.7065
300.7062
300.7055
300.7044
300.7029
300.7009
300.6976
300.6904
300.6752
300.6561
300.6435
300.6189
300.5881
300.5799
300.5736
300.695
300.6722
300.6753
300.6806
300.6856
300.6899
300.6935
300.6965
300.6994
300.7038
300.711
300.7066
300.7052
300.7054
300.7056
300.7055
300.7052
300.7045
300.7034
300.7019
300.6998
300.6967
300.6904
300.6777
300.6615
300.6503
300.6291
300.619
300.6118
300.6054
300.6627
300.6667
300.6728
300.6786
300.6837
300.6881
300.6917
300.6948
300.6975
300.7004
300.7039
300.7033
300.7034
300.7039
300.7042
300.7042
300.7038
300.7031
300.702
300.7004
300.6984
300.6957
300.6915
300.6848
300.677
300.6706
300.6623
300.6555
300.6486
300.6421
300.6573
300.6634
300.6701
300.6761
300.6813
300.6858
300.6896
300.6927
300.6954
300.6977
300.6997
300.7007
300.7015
300.7021
300.7024
300.7024
300.702
300.7013
300.7001
300.6985
300.6965
300.694
300.6907
300.6864
300.6815
300.6763
300.6705
300.6643
300.6577
300.6508
300.6536
300.66
300.6668
300.673
300.6783
300.6829
300.6868
300.6901
300.6929
300.6951
300.6969
300.6982
300.6992
300.6999
300.7002
300.7002
300.6998
300.699
300.6978
300.6962
300.6941
300.6915
300.6884
300.6846
300.6801
300.6751
300.6696
300.6642
300.6593
300.6508
300.6495
300.656
300.663
300.6693
300.6748
300.6795
300.6836
300.687
300.6898
300.6922
300.694
300.6954
300.6965
300.6972
300.6975
300.6975
300.6971
300.6963
300.695
300.6934
300.6912
300.6885
300.6853
300.6815
300.677
300.672
300.6667
300.6629
300.6617
300.6497
300.6447
300.6513
300.6585
300.6649
300.6706
300.6755
300.6797
300.6832
300.6862
300.6887
300.6906
300.6921
300.6932
300.694
300.6943
300.6943
300.6938
300.693
300.6917
300.69
300.6877
300.685
300.6816
300.6777
300.6731
300.6678
300.6621
300.6563
300.6512
300.6424
300.6392
300.6459
300.6533
300.6599
300.6657
300.6708
300.6752
300.6788
300.682
300.6845
300.6866
300.6882
300.6893
300.6901
300.6905
300.6905
300.69
300.6891
300.6878
300.686
300.6836
300.6808
300.6773
300.6732
300.6685
300.6631
300.6569
300.6502
300.643
300.6357
300.6329
300.6398
300.6473
300.6541
300.6602
300.6654
300.6699
300.6738
300.6771
300.6798
300.6819
300.6836
300.6848
300.6857
300.6861
300.686
300.6855
300.6846
300.6832
300.6813
300.6789
300.6759
300.6723
300.6681
300.6632
300.6576
300.6512
300.6441
300.6364
300.6292
300.6259
300.6329
300.6406
300.6476
300.6538
300.6593
300.664
300.668
300.6714
300.6742
300.6765
300.6783
300.6796
300.6805
300.6809
300.6808
300.6803
300.6794
300.6779
300.6759
300.6734
300.6703
300.6666
300.6622
300.6571
300.6513
300.6448
300.6374
300.6295
300.6223
300.618
300.6252
300.6331
300.6403
300.6467
300.6523
300.6572
300.6614
300.665
300.6679
300.6703
300.6722
300.6736
300.6745
300.675
300.6749
300.6744
300.6734
300.6718
300.6698
300.6672
300.6639
300.66
300.6555
300.6503
300.6443
300.6376
300.63
300.6219
300.6146
300.6096
300.617
300.625
300.6324
300.6389
300.6448
300.6498
300.6542
300.6579
300.661
300.6635
300.6655
300.6669
300.6679
300.6684
300.6684
300.6678
300.6667
300.6651
300.663
300.6603
300.6569
300.6529
300.6482
300.6428
300.6367
300.6298
300.6221
300.6138
300.6063
300.602
300.6094
300.6176
300.6251
300.6318
300.6378
300.643
300.6475
300.6514
300.6546
300.6572
300.6592
300.6608
300.6618
300.6623
300.6622
300.6617
300.6606
300.6589
300.6567
300.6539
300.6504
300.6463
300.6415
300.6359
300.6297
300.6226
300.6148
300.6064
300.5988
)
;

boundaryField
{
    fmaxY
    {
        type            zeroGradient;
    }
    fminX
    {
        type            zeroGradient;
    }
    fmaxX
    {
        type            zeroGradient;
    }
    fminY
    {
        type            zeroGradient;
    }
    fminZ
    {
        type            externalWallHeatFluxTemperature;
        mode            coefficient;
        kappaMethod     solidThermo;
        kappa           none;
        h               constant 1000000;
        Ta              uniform 313;
        thicknessLayers List<scalar> 2(1 2);
        kappaLayers     List<scalar> 2(100 200);
        qr              none;
        refValue        uniform 313;
        refGradient     uniform 0;
        valueFraction   nonuniform List<scalar> 
900
(
0.04950261
0.04950261
0.04950261
0.04950261
0.04950261
0.04950261
0.04950261
0.04950261
0.04950261
0.04950261
0.04950261
0.04950261
0.04950261
0.04950261
0.04950261
0.04950261
0.04950261
0.04950261
0.04950261
0.04950261
0.04950261
0.04950261
0.04950261
0.04950261
0.04950261
0.04950261
0.04950261
0.04950261
0.04950261
0.04950261
0.04950261
0.04950261
0.04950261
0.04950261
0.04950261
0.04950261
0.04950261
0.04950261
0.04950261
0.04950261
0.04950261
0.04950261
0.04950261
0.04950261
0.04950261
0.04950261
0.04950261
0.04950261
0.04950261
0.04950261
0.04950261
0.04950261
0.04950261
0.04950261
0.04950261
0.04950261
0.04950261
0.04950261
0.04950261
0.04950261
0.04950261
0.04950261
0.04950261
0.04950261
0.04950261
0.04950261
0.04950261
0.04950261
0.04950261
0.04950261
0.04950261
0.04950261
0.04950261
0.04950261
0.04950261
0.04950261
0.04950261
0.04950261
0.04950261
0.04950261
0.04950261
0.04950261
0.04950261
0.04950261
0.04950261
0.04950261
0.04950261
0.04950261
0.04950261
0.04950261
0.04950261
0.04950261
0.04950261
0.04950261
0.04950261
0.04950261
0.04950261
0.04950261
0.04950261
0.04950261
0.04950261
0.04950261
0.04950261
0.04950261
0.04950261
0.04950261
0.04950261
0.04950261
0.04950261
0.04950261
0.04950261
0.04950261
0.04950261
0.04950261
0.04950261
0.04950261
0.04950261
0.04950261
0.04950261
0.04950261
0.04950261
0.04950261
0.04950261
0.04950261
0.04950261
0.04950261
0.04950261
0.04950261
0.04950261
0.04950261
0.04950261
0.04950261
0.04950261
0.04950261
0.04950261
0.04950261
0.04950261
0.04950261
0.04950261
0.04950261
0.04950261
0.04950261
0.04950261
0.04950261
0.04950261
0.04950261
0.04950261
0.04950261
0.04950261
0.04950261
0.04950261
0.04950261
0.04950261
0.04950261
0.04950261
0.04950261
0.04950261
0.04950261
0.04950261
0.04950261
0.04950261
0.04950261
0.04950261
0.04950261
0.04950261
0.04950261
0.04950261
0.04950261
0.04950261
0.04950261
0.04950261
0.04950261
0.04950261
0.04950261
0.04950261
0.04950261
0.04950261
0.04950261
0.04950261
0.04950261
0.04950261
0.04950261
0.04950261
0.04950261
0.04950261
0.04950261
0.04950261
0.04950261
0.04950261
0.04950261
0.04950261
0.04950261
0.04950261
0.04950261
0.04950261
0.04950261
0.04950261
0.04950261
0.04950261
0.04950261
0.04950261
0.04950261
0.04950261
0.04950261
0.04950261
0.04950261
0.04950261
0.04950261
0.04950261
0.04950261
0.04950261
0.04950261
0.04950261
0.04950261
0.04950261
0.04950261
0.04950261
0.04950261
0.04950261
0.04950261
0.04950261
0.04950261
0.04950261
0.04950261
0.04950261
0.04950261
0.04950261
0.04950261
0.04950261
0.04950261
0.04950261
0.04950261
0.04950261
0.04950261
0.04950261
0.04950261
0.04950261
0.04950261
0.04950261
0.04950261
0.04950261
0.04950261
0.04950261
0.04950261
0.04950261
0.04950261
0.04950261
0.04950261
0.04950261
0.04950261
0.04950261
0.04950261
0.04950261
0.04950261
0.04950261
0.04950261
0.04950261
0.04950261
0.04950261
0.04950261
0.04950261
0.04950261
0.04950261
0.04950261
0.04950261
0.04950261
0.04950261
0.04950261
0.04950261
0.04950261
0.04950261
0.04950261
0.04950261
0.04950261
0.04950261
0.04950261
0.04950261
0.04950261
0.04950261
0.04950261
0.04950261
0.04950261
0.04950261
0.04950261
0.04950261
0.04950261
0.04950261
0.04950261
0.04950261
0.04950261
0.04950261
0.04950261
0.04950261
0.04950261
0.04950261
0.04950261
0.04950261
0.04950261
0.04950261
0.04950261
0.04950261
0.04950261
0.04950261
0.04950261
0.04950261
0.04950261
0.04950261
0.04950261
0.04950261
0.04950261
0.04950261
0.04950261
0.04950261
0.04950261
0.04950261
0.04950261
0.04950261
0.04950261
0.04950261
0.04950261
0.04950261
0.04950261
0.04950261
0.04950261
0.04950261
0.04950261
0.04950261
0.04950261
0.04950261
0.04950261
0.04950261
0.04950261
0.04950261
0.04950261
0.04950261
0.04950261
0.04950261
0.04950261
0.04950261
0.04950261
0.04950261
0.04950261
0.04950261
0.04950261
0.04950261
0.04950261
0.04950261
0.04950261
0.04950261
0.04950261
0.04950261
0.04950261
0.04950261
0.04950261
0.04950261
0.04950261
0.04950261
0.04950261
0.04950261
0.04950261
0.04950261
0.04950261
0.04950261
0.04950261
0.04950261
0.04950261
0.04950261
0.04950261
0.04950261
0.04950261
0.04950261
0.04950261
0.04950261
0.04950261
0.04950261
0.04950261
0.04950261
0.04950261
0.04950261
0.04950261
0.04950261
0.04950261
0.04950261
0.04950261
0.04950261
0.04950261
0.04950261
0.04950261
0.04950261
0.04950261
0.04950261
0.04950261
0.04950261
0.04950261
0.04950261
0.04950261