/*--------------------------------*- C++ -*----------------------------------*\
| =========                 |                                                 |
| \\      /  F ield         | OpenFOAM: The Open Source CFD Toolbox           |
|  \\    /   O peration     | Version:  2506                                  |
|   \\  /    A nd           | Website:  www.openfoam.com                      |
|    \\/     M anipulation  |                                                 |
\*---------------------------------------------------------------------------*/
FoamFile
{
    version     2.0;
    format      ascii;
    arch        "LSB;label=32;scalar=64";
    class       volScalarField;
    location    "150/airRegion";
    object      alphat;
}
// * * * * * * * * * * * * * * * * * * * * * * * * * * * * * * * * * * * * * //

dimensions      [1 -1 -1 0 0 0 0];

internalField   nonuniform List<scalar> 
85779
(
0.1066855
0.1071209
0.1068898
0.1066105
0.1062702
0.1055937
0.1037466
0.09810839
0.08322292
0.0781042
0.07720622
0.07891687
0.08282276
0.08839804
0.09431974
0.09838089
0.09751546
0.08936203
0.07902602
0.07262336
0.0725507
0.07959874
0.09767461
0.10368
0.1053377
0.1056908
0.1052252
0.1022733
0.08606942
0.02337762
0.1068072
0.1073854
0.1069428
0.1062939
0.10546
0.1039286
0.1003009
0.09264205
0.08386873
0.08028927
0.07934326
0.08063614
0.08404271
0.08909286
0.09452748
0.09826313
0.09738004
0.08948457
0.07940814
0.0732715
0.07319805
0.0786641
0.08922421
0.09947112
0.1027911
0.1034754
0.1025563
0.09808055
0.07988317
0.02195958
0.106602
0.1068674
0.1061662
0.105249
0.1040705
0.1017962
0.09619305
0.08910198
0.08435056
0.08185086
0.08116317
0.08227983
0.08522184
0.08959998
0.09429121
0.09744526
0.09640083
0.08871102
0.07877173
0.07263261
0.07224429
0.07647734
0.08440003
0.09619314
0.1003064
0.1011813
0.1003266
0.09619329
0.07959485
0.02219932
0.1065489
0.1065924
0.1056876
0.1045774
0.1031536
0.1004585
0.09428794
0.08674041
0.08361778
0.0821481
0.08195936
0.0831637
0.08584078
0.08964848
0.09358911
0.09606993
0.09473832
0.08707026
0.07695942
0.07048611
0.06965687
0.07325553
0.08074887
0.09436204
0.0988473
0.09987249
0.09926103
0.09574982
0.08050193
0.02239571
0.1065661
0.1065095
0.1054842
0.1042435
0.1026186
0.09931649
0.09129805
0.08539184
0.08296114
0.08200808
0.08213234
0.08342277
0.0859154
0.08923526
0.09244722
0.09419699
0.09247391
0.08469395
0.07425815
0.06745288
0.06652089
0.07024778
0.07832804
0.09340569
0.09812339
0.09929036
0.0989152
0.09587605
0.08142755
0.02253236
0.1065955
0.1064985
0.1054057
0.1040745
0.1022684
0.09838815
0.08952034
0.08489281
0.08265898
0.0817933
0.08200987
0.08331103
0.0856227
0.08847579
0.09094171
0.09188904
0.08969291
0.08175448
0.07099621
0.06403401
0.06338327
0.06770209
0.07664012
0.09284516
0.09776627
0.09906723
0.0988715
0.0961072
0.08189082
0.02262706
0.106618
0.1065026
0.1053673
0.1039677
0.1020245
0.09781716
0.088239
0.08396867
0.08203989
0.08137765
0.08171418
0.08302045
0.08514073
0.08750383
0.08916373
0.08922028
0.08649698
0.07842321
0.06742317
0.06048382
0.0603499
0.06544034
0.07525965
0.09242781
0.09755499
0.09898246
0.09891912
0.09631975
0.08219014
0.02268947
0.1066311
0.1065028
0.1053315
0.1038525
0.1016989
0.09698487
0.08738648
0.08338188
0.08165511
0.08110993
0.08149065
0.08274067
0.08461883
0.08643456
0.08720551
0.08628694
0.08302555
0.07488922
0.06375186
0.05694884
0.05739746
0.06325722
0.07391391
0.09200976
0.0973688
0.09892591
0.09896698
0.09647269
0.08238453
0.0227287
0.1066368
0.1064959
0.1052859
0.1036844
0.1010317
0.09484616
0.0873738
0.0835066
0.0817011
0.08109022
0.08140991
0.08254014
0.08413048
0.08535106
0.08517107
0.08323671
0.07949215
0.0714006
0.06023025
0.05359748
0.05454086
0.06100967
0.07237425
0.09141769
0.09711476
0.09883966
0.09897977
0.09655949
0.08249691
0.02275137
0.1066379
0.1064857
0.1052458
0.1035638
0.1007759
0.09476623
0.08659312
0.08318045
0.08158351
0.08104737
0.08136281
0.08239122
0.08369899
0.0843294
0.08320978
0.08030998
0.07621279
0.06828273
0.05717413
0.05069123
0.05194161
0.05869166
0.07037665
0.09035468
0.09666505
0.09867961
0.09894489
0.09658714
0.08254674
0.02276213
0.1066364
0.1064739
0.1052074
0.1034455
0.1004256
0.09401596
0.08620902
0.08306145
0.08157258
0.08107576
0.08137432
0.08230309
0.08335575
0.08346832
0.081539
0.077852
0.07357746
0.06588426
0.05489009
0.04851902
0.04994201
0.05665401
0.06785697
0.08785356
0.09577606
0.09840467
0.09886195
0.09656821
0.08255168
0.02276451
0.106634
0.1064623
0.1051731
0.1033427
0.1001015
0.09318118
0.08594629
0.08307327
0.08165546
0.08116184
0.08142527
0.08226395
0.08312203
0.08286824
0.08039378
0.07621948
0.07192517
0.06445094
0.05346348
0.04699237
0.0484561
0.05510853
0.06534597
0.08052277
0.09419906
0.09804103
0.09875245
0.09652087
0.08252803
0.02276136
0.1066316
0.1064529
0.1051472
0.1032591
0.09965484
0.09165368
0.08602378
0.08307546
0.08167954
0.08120817
0.08145841
0.08224466
0.08300265
0.08259161
0.07992164
0.07562605
0.07144227
0.06412603
0.05292106
0.04594425
0.04716797
0.05378844
0.06349439
0.07628711
0.09300693
0.09774571
0.09865171
0.09646458
0.08249082
0.02275523
0.1066298
0.1064466
0.1051315
0.1032288
0.09960708
0.09130974
0.08564226
0.08292142
0.08166524
0.08122967
0.08147124
0.08223959
0.08300417
0.08267393
0.08019994
0.07617963
0.07222115
0.065019
0.05341879
0.04552874
0.04613042
0.05251417
0.06201907
0.07451665
0.09251596
0.09758489
0.0985796
0.09641507
0.08245398
0.02274875
0.1066291
0.1064438
0.105124
0.1032203
0.09966491
0.09136557
0.0854302
0.08291166
0.08171808
0.08126482
0.08148014
0.08225767
0.08313751
0.08314198
0.08129031
0.07796743
0.07432011
0.06717147
0.05508699
0.04601284
0.04572784
0.05178294
0.06123386
0.07383713
0.09232157
0.09750479
0.09853679
0.09638315
0.08242939
0.02274444
0.1066296
0.1064451
0.1051266
0.1032156
0.09957127
0.09121043
0.08560641
0.08295644
0.08171356
0.08124626
0.08145883
0.08228687
0.08337831
0.08392236
0.08302767
0.08074141
0.07753254
0.07041254
0.05783933
0.04745216
0.04607359
0.05167133
0.06100494
0.07363686
0.09225948
0.09747806
0.09852356
0.09637543
0.08242449
0.02274393
0.1066312
0.1064503
0.1051387
0.103234
0.09955469
0.09130093
0.08592901
0.08307836
0.08170023
0.08119018
0.08140839
0.08231593
0.0836719
0.08484509
0.08503459
0.08392937
0.08128555
0.07419232
0.06122022
0.04966207
0.04713933
0.05215979
0.06124787
0.0737539
0.09228933
0.09749619
0.09853865
0.09639199
0.08243956
0.02274721
0.1066338
0.106459
0.1051615
0.1032929
0.09971073
0.09168245
0.08617872
0.08311736
0.08162251
0.08108433
0.08132861
0.08233809
0.08397321
0.08576483
0.0869883
0.08702996
0.08503665
0.07802417
0.06475538
0.05229606
0.04877199
0.05319683
0.0619558
0.0741999
0.09241231
0.09755615
0.09857715
0.09642594
0.08246762
0.02275268
0.1066368
0.1064705
0.1051941
0.1033946
0.100065
0.09244355
0.08633537
0.08307624
0.08152153
0.08097424
0.08125077
0.08236532
0.08426589
0.08661426
0.08874256
0.08980432
0.08846708
0.08157809
0.06811894
0.0550818
0.05081532
0.05473899
0.06322663
0.07520246
0.09268312
0.09766486
0.09863305
0.09646615
0.08249723
0.02275792
0.1066397
0.1064835
0.1052329
0.1035253
0.1006593
0.09443174
0.08633175
0.08299766
0.08144029
0.08089201
0.08119846
0.08241266
0.08455546
0.08738857
0.09028173
0.09221064
0.0914679
0.0846856
0.07107934
0.05771327
0.0529598
0.05655861
0.06513602
0.07746427
0.09331749
0.09785839
0.09870381
0.09650025
0.08251504
0.02276037
0.1066413
0.106496
0.1052725
0.1036418
0.1010111
0.09532439
0.0869308
0.08325518
0.08151417
0.08088982
0.08119744
0.08249747
0.08485865
0.08811296
0.09164926
0.09429933
0.09404894
0.08729448
0.07350367
0.05989238
0.0547107
0.05798678
0.06719003
0.08219564
0.09472596
0.09819129
0.09878702
0.09651486
0.08250665
0.02275747
0.1066402
0.1065067
0.1053158
0.1037785
0.1013308
0.09535642
0.08738167
0.08332236
0.08149265
0.08087232
0.08122251
0.08262209
0.08519038
0.08881785
0.09290076
0.09614545
0.09627225
0.08945447
0.07549359
0.06182897
0.05647815
0.05969521
0.06981684
0.08925611
0.09629958
0.09853739
0.09885189
0.09649135
0.082456
0.02274647
0.1066343
0.1065124
0.1053551
0.1039136
0.1018617
0.09733769
0.08770787
0.08350214
0.08162565
0.08098566
0.08135113
0.08282574
0.08557298
0.08952775
0.0940793
0.09781289
0.09820916
0.09127619
0.07730204
0.06397156
0.05884095
0.06210279
0.07223572
0.09111683
0.09694961
0.09872531
0.09886344
0.09641055
0.08234498
0.02272389
0.1066209
0.1065106
0.1053848
0.1040061
0.1021111
0.09798754
0.08854293
0.08421744
0.08215344
0.08136565
0.0816487
0.0831288
0.08600462
0.09023981
0.09519745
0.09933403
0.09990713
0.09284764
0.0790598
0.06634912
0.06153199
0.06458274
0.07410537
0.09189772
0.09727992
0.09883098
0.0988313
0.09626322
0.08215342
0.02268513
0.1065979
0.1065051
0.1054195
0.1041035
0.1023297
0.09850071
0.08975171
0.08516141
0.08279282
0.08180215
0.08196527
0.08341955
0.08640035
0.09089484
0.09622347
0.100701
0.1013753
0.094202
0.0807781
0.06886242
0.06437761
0.06707058
0.07577795
0.09247217
0.09755632
0.09894163
0.09879385
0.09605534
0.08185713
0.02262349
0.1065679
0.1065148
0.105496
0.1042698
0.1026687
0.09933023
0.09128539
0.08577491
0.08306369
0.08195686
0.08204915
0.08349887
0.08660446
0.09138021
0.09708438
0.1018699
0.1025862
0.09531388
0.08237761
0.07137278
0.0673072
0.06969569
0.07757671
0.09309642
0.09794354
0.09917901
0.09884435
0.09582729
0.08138943
0.02252979
0.1065501
0.1065966
0.105698
0.1046025
0.1032092
0.1004511
0.09362033
0.08716641
0.0837328
0.08210138
0.08187312
0.08321947
0.08645396
0.09156326
0.09768645
0.1027758
0.1034869
0.09610547
0.0836929
0.07366146
0.07020754
0.07259203
0.07984483
0.09401428
0.09866581
0.09976653
0.09919513
0.09570487
0.08046688
0.02239408
0.1066028
0.1068706
0.1061748
0.1052706
0.1041242
0.1020026
0.09707082
0.08939863
0.08450282
0.0818457
0.08109542
0.08232542
0.08577253
0.09132599
0.09794679
0.103354
0.1040177
0.09646969
0.08448301
0.07535286
0.07270008
0.07562662
0.08291314
0.095607
0.1000747
0.1010718
0.1002658
0.09615387
0.07956701
0.02219847
0.1068077
0.1073875
0.1069488
0.1063097
0.1055024
0.1040493
0.1005783
0.09237158
0.0841661
0.08030405
0.07928934
0.08068034
0.0845505
0.09067726
0.09784437
0.1035569
0.1041308
0.09632879
0.08453161
0.07597519
0.07399783
0.07792527
0.08670769
0.09835377
0.1024662
0.103364
0.1025064
0.09805095
0.07986313
0.02195931
0.1066856
0.1071215
0.1068918
0.1066165
0.1062891
0.1056552
0.1039358
0.09852429
0.08369587
0.07833697
0.07728454
0.07901853
0.08332954
0.08990463
0.09743017
0.1032977
0.1037435
0.095692
0.08390759
0.07547333
0.07351999
0.07810958
0.09181611
0.1023335
0.1050625
0.1056249
0.1052033
0.1022621
0.08606161
0.02337763
0.1068073
0.1073853
0.1069427
0.1062943
0.1054623
0.103917
0.1000355
0.09165887
0.08431128
0.08042692
0.07933316
0.08055574
0.08392293
0.08898775
0.0945242
0.09844392
0.09778141
0.08997906
0.07972018
0.07320805
0.07287203
0.07851441
0.09135954
0.09990084
0.1028389
0.1034752
0.102556
0.0980934
0.07991802
0.02196366
0.1061542
0.1077422
0.1080923
0.107324
0.1057534
0.1030807
0.09838562
0.09206325
0.08631815
0.08274949
0.08138845
0.08217581
0.08505732
0.08960963
0.09466419
0.09825713
0.09757919
0.09006441
0.08008091
0.07382802
0.0736479
0.07860572
0.08698022
0.09464603
0.09849778
0.09913103
0.09645682
0.0875037
0.0636853
0.01662513
0.1052715
0.1062519
0.1067347
0.1060535
0.1043229
0.1013943
0.09694048
0.09183366
0.0874463
0.08449822
0.08321884
0.08375487
0.08614572
0.09002177
0.09433185
0.09733797
0.09650532
0.08926095
0.07949375
0.07328192
0.07285382
0.07689062
0.08340823
0.08997767
0.09371051
0.09415345
0.09093351
0.0813946
0.05856494
0.01594392
0.1049054
0.1051969
0.1052278
0.1042649
0.1023045
0.09916735
0.09488837
0.09059707
0.0872147
0.0849725
0.08403514
0.08458292
0.08667647
0.08997048
0.09351991
0.09583996
0.09473087
0.08760057
0.07777658
0.07127503
0.07038616
0.07370469
0.07940132
0.08576844
0.08957279
0.09022646
0.08748151
0.07905005
0.0581636
0.01636025
0.1048125
0.1047493
0.1043877
0.1030888
0.1008416
0.0973885
0.09311891
0.08926371
0.08645949
0.08470892
0.0840871
0.08472849
0.08664313
0.08944687
0.09224934
0.09381378
0.09232386
0.08518208
0.07512928
0.06825086
0.06708328
0.07023387
0.07598569
0.08282933
0.086992
0.08811519
0.08613799
0.07893573
0.05939436
0.01678097
0.10481
0.1046014
0.1040102
0.1024657
0.09996896
0.09617933
0.09185465
0.0882502
0.08569815
0.0841937
0.08376377
0.08447067
0.0862298
0.0885634
0.09058495
0.09130476
0.08935201
0.08215528
0.07184742
0.06469462
0.06357879
0.06706378
0.07337898
0.08097459
0.08562586
0.08725892
0.08594923
0.07961032
0.0607255
0.01707317
0.1048244
0.1045558
0.1038362
0.1021286
0.09944536
0.09538918
0.09083729
0.08731781
0.0849431
0.08361757
0.08332043
0.08405286
0.0856296
0.08745092
0.0886028
0.08836594
0.08590196
0.07868514
0.06819124
0.06091951
0.06011775
0.06422166
0.07130509
0.07970672
0.08487712
0.0869692
0.08615639
0.08036111
0.06177622
0.01726195
0.1048334
0.1045304
0.1037245
0.10189
0.09904814
0.0947968
0.090193
0.08673658
0.08445439
0.08321257
0.08296326
0.08365279
0.0849862
0.08621579
0.08637783
0.08507283
0.08210549
0.07496562
0.0643958
0.05712576
0.05675063
0.06154512
0.0694217
0.07862138
0.08432253
0.08682212
0.08637835
0.08092809
0.06249204
0.01737796
0.1048338
0.1045007
0.1036228
0.1016697
0.09868241
0.09452811
0.09002057
0.08655816
0.08425728
0.08300695
0.08273697
0.08333073
0.08437015
0.08493713
0.08400478
0.08156571
0.07818703
0.07126091
0.06072766
0.05350965
0.05351735
0.05889042
0.06743529
0.07737273
0.08370184
0.08660639
0.08646735
0.08125404
0.06291
0.01744334
0.1048284
0.1044677
0.1035322
0.1014809
0.09833739
0.09399066
0.08957321
0.08624625
0.08403894
0.08284037
0.08257273
0.08307376
0.08381281
0.08370166
0.08165133
0.07811828
0.07451027
0.06792908
0.05751441
0.05032846
0.05056821
0.0562846
0.06523029
0.07575542
0.08283062
0.08622084
0.0863855
0.08135912
0.06309137
0.01747305
0.1048201
0.1044334
0.1034494
0.1013138
0.09800449
0.09358525
0.0892532
0.08602693
0.08389559
0.08274078
0.08247186
0.08288549
0.08335311
0.08263816
0.07960428
0.07517913
0.07155296
0.06536764
0.0550801
0.04783775
0.04814062
0.05397814
0.06296484
0.07365669
0.08161187
0.0856455
0.08615246
0.08129235
0.06309829
0.01747788
0.1048112
0.1044015
0.1033773
0.1011718
0.09771765
0.0932384
0.0890263
0.08589816
0.08382339
0.08269391
0.08241572
0.08275761
0.08302541
0.08188899
0.07819704
0.07323245
0.06972152
0.0638678
0.05359049
0.04604474
0.04616804
0.05197736
0.06082762
0.07121902
0.08018398
0.08498399
0.08583943
0.08112077
0.06299484
0.01746652
0.1048036
0.1043763
0.1033227
0.1010642
0.09748349
0.09298025
0.08882806
0.08576063
0.08374382
0.08264611
0.0823681
0.08267143
0.08284419
0.0815348
0.07760916
0.07251604
0.06918883
0.06357171
0.05313847
0.044937
0.04455322
0.05019565
0.05895525
0.06916448
0.07898811
0.08440525
0.08553029
0.08091284
0.06284216
0.01744659
0.1047985
0.1043595
0.1032869
0.1009978
0.09736002
0.09276188
0.08863094
0.08564621
0.08368342
0.08260475
0.08232524
0.08262342
0.08281989
0.08161577
0.07791803
0.07312626
0.0700182
0.06455334
0.05385018
0.04468868
0.04347477
0.04878129
0.05748976
0.06782013
0.07822591
0.08399791
0.0852831
0.08072635
0.06269511
0.01742601
0.1047963
0.1043521
0.1032705
0.1009682
0.09731424
0.09268202
0.08857669
0.08563711
0.08368249
0.08259068
0.0822991
0.08262341
0.08296983
0.08217824
0.07923259
0.07521405
0.07230218
0.06684234
0.055789
0.04547365
0.04318237
0.04802272
0.05666066
0.0671218
0.07780438
0.08375899
0.08512893
0.08060626
0.0625998
0.0174124
0.1047976
0.1043556
0.1032772
0.100978
0.09732109
0.09271307
0.08860948
0.08564948
0.08368271
0.08257686
0.08228136
0.082667
0.08327113
0.08314476
0.0813834
0.0785436
0.0758858
0.07029297
0.05882555
0.04728656
0.04375017
0.04799328
0.05645793
0.06692205
0.07767635
0.08368572
0.08508639
0.08058039
0.06258533
0.01741084
0.1048021
0.1043696
0.1033058
0.1010285
0.09740848
0.09286709
0.08875912
0.08572461
0.08370315
0.08256762
0.08227196
0.0827404
0.08365114
0.08428252
0.08384145
0.08234758
0.08010207
0.07432774
0.06246297
0.04987506
0.04512087
0.04868136
0.05684804
0.06715789
0.07781439
0.08377027
0.08515471
0.08064947
0.06265223
0.01742133
0.1048095
0.1043932
0.1033556
0.1011222
0.09759189
0.09311541
0.08894699
0.08581341
0.08372413
0.08255779
0.08227012
0.0828315
0.08404625
0.08539021
0.08615727
0.0859427
0.08426349
0.07839413
0.06618322
0.05281122
0.04707018
0.04998417
0.05777602
0.06779542
0.07818707
0.08398972
0.08531036
0.08078569
0.06277161
0.0174388
0.1048189
0.1044243
0.1034233
0.1012558
0.09786884
0.09344587
0.08915538
0.08592365
0.08377034
0.08257191
0.08229187
0.08294233
0.08443085
0.08638715
0.08816722
0.08906253
0.08800361
0.0821342
0.06966315
0.05581232
0.04941143
0.05180339
0.05922617
0.0688835
0.07878072
0.08432238
0.08551901
0.08094462
0.06289802
0.01745593
0.104829
0.1044598
0.1035035
0.1014171
0.09820819
0.093791
0.08937218
0.08606515
0.08385612
0.08262502
0.0823502
0.08308166
0.08480877
0.08727596
0.08988097
0.09169991
0.09122723
0.08538946
0.07271172
0.05863669
0.05189899
0.05394996
0.06115219
0.07058948
0.07969728
0.08477337
0.08574709
0.08107565
0.06297959
0.0174651
0.104838
0.1044963
0.1035912
0.1015938
0.09854992
0.0942748
0.08977207
0.0863334
0.08402525
0.08273955
0.08246017
0.08326282
0.08519797
0.08809335
0.09137139
0.09394665
0.09397379
0.08813001
0.07524845
0.06110014
0.05422083
0.05602686
0.06318648
0.07285564
0.08102844
0.0853442
0.08595696
0.08112382
0.06296069
0.01745877
0.1048437
0.1045308
0.1036865
0.1017894
0.09886373
0.09465713
0.09003727
0.08651693
0.08417413
0.08287817
0.0826167
0.08349443
0.08561746
0.08887954
0.0927158
0.09590822
0.09632846
0.09040995
0.07734984
0.06330939
0.05650903
0.05820411
0.06537878
0.07525421
0.08240979
0.08589213
0.08607682
0.08102434
0.06277885
0.01742841
0.1048426
0.1045581
0.1037808
0.1019904
0.09920764
0.09502144
0.09037143
0.08682567
0.08445457
0.08313653
0.08287551
0.0838073
0.0860882
0.08966418
0.0939703
0.09766651
0.09837404
0.09232632
0.07920414
0.06556985
0.05913952
0.06083167
0.06778461
0.0771703
0.08341529
0.086262
0.08603941
0.08071487
0.0623666
0.01736337
0.1048323
0.1045794
0.1038821
0.1022072
0.09956893
0.0955861
0.09106789
0.08750433
0.08504141
0.08362173
0.08328882
0.08421642
0.08660764
0.0904477
0.09515486
0.09926331
0.1001625
0.09395913
0.08094
0.06797675
0.06205909
0.06366519
0.07010121
0.07869758
0.08419831
0.08651588
0.08586148
0.08016624
0.06165916
0.01724863
0.1048166
0.104621
0.1040483
0.1025311
0.1000745
0.09635833
0.09208625
0.08845921
0.08582466
0.08422849
0.08375964
0.0846337
0.08710108
0.0911767
0.09624306
0.1006957
0.1017045
0.0953391
0.08258137
0.07047689
0.06515784
0.06665699
0.07248502
0.08023741
0.08508038
0.08687448
0.08568722
0.07943184
0.06061742
0.0170618
0.1048179
0.104766
0.1044215
0.1031496
0.100943
0.09755786
0.09335539
0.0894576
0.08655113
0.0847182
0.08407066
0.08487007
0.08741631
0.09174124
0.09716489
0.1019223
0.1029729
0.09643973
0.08405008
0.07291861
0.06831727
0.06986597
0.07523044
0.0822304
0.08651959
0.08777359
0.08589951
0.07877025
0.05929256
0.01677194
0.1049096
0.105211
0.1052585
0.1043239
0.1024091
0.0993469
0.09514397
0.09080599
0.08731798
0.08498737
0.08401591
0.08470236
0.08736257
0.0920011
0.0978263
0.1028797
0.1039158
0.09718478
0.08517466
0.07503348
0.07129444
0.07323533
0.07856708
0.08514728
0.08911627
0.08990865
0.08726201
0.07889756
0.05807083
0.01635354
0.1052746
0.1062633
0.1067609
0.1061067
0.1044264
0.101595
0.09721292
0.0921072
0.08759276
0.08453034
0.08319694
0.08384817
0.08675256
0.0918348
0.09814433
0.1035049
0.1044776
0.09747901
0.08573062
0.07643076
0.07358411
0.07628775
0.08227398
0.08915804
0.09321656
0.09385374
0.09074017
0.08126247
0.05848478
0.01593929
0.1061561
0.1077498
0.1081107
0.1073655
0.1058452
0.1032803
0.09877585
0.09240098
0.08641433
0.08273937
0.08134124
0.08223826
0.08559793
0.09125407
0.09809688
0.1037506
0.104616
0.09727191
0.08557333
0.07677064
0.07454508
0.07805468
0.08528967
0.09344694
0.09796194
0.09887667
0.09631586
0.0874119
0.0636279
0.01662262
0.1068077
0.1073874
0.1069486
0.1063109
0.1055109
0.1040767
0.1005801
0.09243286
0.08420358
0.0803177
0.07926705
0.08060976
0.08443061
0.09053108
0.09772177
0.1035209
0.1042454
0.09659554
0.08485809
0.07623774
0.07414311
0.07798171
0.08671728
0.09832984
0.1024479
0.1033526
0.1025043
0.09806346
0.07989762
0.02196342
0.1066022
0.1068679
0.1061678
0.1052546
0.1040877
0.1018245
0.09611135
0.08914444
0.08444991
0.08184386
0.08105058
0.08206205
0.08493141
0.08935839
0.09431297
0.09794693
0.09750244
0.09016747
0.07997129
0.07308397
0.07198608
0.0760264
0.08669654
0.09686741
0.1004152
0.1012105
0.100354
0.09624043
0.07967053
0.0222057
0.1052721
0.1062538
0.1067386
0.1060612
0.1043398
0.1014331
0.09698827
0.09188167
0.08747014
0.08448225
0.08315264
0.08363023
0.08597894
0.0898842
0.09435364
0.0976545
0.09719656
0.09019974
0.08033086
0.07372321
0.07291368
0.07680484
0.08350166
0.09010388
0.09375596
0.09419314
0.09099526
0.08148849
0.05866893
0.01596158
0.103928
0.1038452
0.1047706
0.1049895
0.1039625
0.1015643
0.09784212
0.09355451
0.08961572
0.08667711
0.08511509
0.08517826
0.08695776
0.09015167
0.09385274
0.09654254
0.09593173
0.08930691
0.07980948
0.07338488
0.07251877
0.07585083
0.08113119
0.0860587
0.08861996
0.08803065
0.08317614
0.07154929
0.04870282
0.01323053
0.1033367
0.1021851
0.102462
0.1025865
0.1017887
0.09977912
0.0967169
0.09321191
0.08994056
0.08741179
0.08599175
0.08594788
0.08736807
0.08994703
0.09285581
0.09482577
0.09394488
0.08756749
0.07821209
0.07164441
0.07041301
0.07308857
0.07741174
0.08140874
0.08334041
0.08238649
0.07737739
0.0661442
0.04502757
0.01273935
0.1031489
0.1014572
0.1011101
0.100769
0.09973678
0.09769224
0.09489117
0.09187602
0.08914405
0.08706323
0.08592781
0.08595897
0.08718854
0.08925849
0.09137931
0.09254547
0.0912911
0.0850455
0.07563849
0.06872862
0.06709515
0.06934962
0.07327446
0.07706559
0.07902533
0.07843934
0.07421976
0.06431246
0.04482813
0.01304324
0.1031081
0.101203
0.1004994
0.09978156
0.09844304
0.09618138
0.0933598
0.09052701
0.08807936
0.08629754
0.08539902
0.08552727
0.08661373
0.08819276
0.08946825
0.08971761
0.08800973
0.08185832
0.07233564
0.06507242
0.06322869
0.06548944
0.06961325
0.07380959
0.07627704
0.07641395
0.07320007
0.06453168
0.04600013
0.01341281
0.1031067
0.1011217
0.1002362
0.09928313
0.09770639
0.09523035
0.09227758
0.08946352
0.08713949
0.08552427
0.08477195
0.08494473
0.08585053
0.08687248
0.0871713
0.0863577
0.08416088
0.07815851
0.06857192
0.06105377
0.05923921
0.06186568
0.06657808
0.0714936
0.07469573
0.07559045
0.07323291
0.06543379
0.04733067
0.01368194
0.1031086
0.101085
0.1000953
0.09899133
0.09723927
0.09461709
0.09157913
0.08875323
0.08647486
0.08493359
0.08424204
0.08438723
0.08503853
0.08538943
0.08453009
0.08250044
0.07985953
0.0741453
0.0646142
0.05695546
0.05531859
0.05847762
0.06392757
0.0696642
0.07365241
0.07521933
0.07351178
0.06627845
0.04835461
0.01385087
0.1031055
0.1010515
0.09998701
0.09877134
0.09688686
0.09420765
0.09114559
0.08830855
0.08604157
0.08452643
0.08384587
0.08391355
0.08424651
0.08381374
0.08161373
0.07826139
0.07534214
0.07010937
0.06076454
0.05303001
0.0515724
0.05522778
0.06136938
0.06789885
0.07268203
0.07484637
0.07364412
0.06679662
0.04897691
0.0139442
0.1030979
0.101015
0.09989137
0.09858811
0.09658438
0.09380932
0.09072912
0.08791715
0.08569177
0.08421586
0.08354481
0.08352374
0.08351503
0.08224503
0.07860841
0.07395715
0.07104795
0.06646688
0.05738677
0.04955487
0.04814207
0.05211167
0.05876773
0.06596865
0.07153485
0.07426814
0.07350203
0.06695136
0.04923899
0.01398311
0.1030881
0.1009773
0.09980363
0.09842805
0.09632033
0.09347327
0.09038698
0.08760568
0.085424
0.08398614
0.08332268
0.08321831
0.08289688
0.08086397
0.07592559
0.07022272
0.06760651
0.06369697
0.05485134
0.04679597
0.04520342
0.04925204
0.05619283
0.06386482
0.07015137
0.07346291
0.07310365
0.06680458
0.0492224
0.01398351
0.1030783
0.1009424
0.09972702
0.09829224
0.09609763
0.09319616
0.09011711
0.08736851
0.08522481
0.08381726
0.08315875
0.08299164
0.08244655
0.07988974
0.07409392
0.06778493
0.06552633
0.06213309
0.05339817
0.04488153
0.04280122
0.04668281
0.05372577
0.0617057
0.06862476
0.07254249
0.07255862
0.06647033
0.04902863
0.01395894
0.1030701
0.1009145
0.09966787
0.09818858
0.09592709
0.09297555
0.0898965
0.08717507
0.08506495
0.08368249
0.08302943
0.08283118
0.08218691
0.07942284
0.07332608
0.06688356
0.06492426
0.06187495
0.05313501
0.04390301
0.04100941
0.04449902
0.05152729
0.05974898
0.0671891
0.07167243
0.07199482
0.06606874
0.04875811
0.01392129
0.1030646
0.100896
0.09962906
0.09812138
0.09581893
0.09283
0.08974672
0.08704399
0.08495331
0.08358149
0.08292952
0.08273436
0.08212998
0.07949905
0.07366825
0.06755691
0.06579801
0.06293449
0.0541163
0.04399153
0.04001408
0.042923
0.04983823
0.05824576
0.06607935
0.07098934
0.071522
0.06570751
0.04850182
0.01388348
0.1030623
0.1008883
0.09961221
0.09809178
0.09577197
0.09277312
0.08969279
0.08699667
0.08490531
0.08352518
0.08286816
0.0827137
0.08230488
0.08020226
0.07532407
0.07007837
0.06830489
0.06534501
0.0563369
0.04522262
0.03997253
0.0421644
0.04887597
0.05736198
0.06541384
0.07057131
0.07122404
0.06547674
0.0483376
0.01385868
0.1030636
0.1008923
0.09961987
0.09810385
0.09578943
0.09279376
0.08971413
0.08701264
0.08490899
0.0835111
0.08285006
0.08277306
0.08269437
0.08146645
0.07817223
0.07431436
0.07242877
0.06903923
0.05964642
0.04751474
0.0409136
0.04230816
0.04873516
0.05717098
0.06525802
0.07046876
0.07115696
0.06543523
0.04831642
0.01385637
0.1030684
0.1009078
0.09965136
0.09815682
0.09587292
0.09290329
0.08982405
0.08710012
0.08496714
0.08354181
0.08287751
0.08289565
0.08319619
0.08294519
0.08138696
0.07913727
0.07736374
0.07342523
0.06353866
0.05053574
0.04272409
0.04333341
0.04941093
0.05766232
0.06560483
0.07068157
0.07132289
0.06558484
0.04843918
0.01387653
0.1030763
0.1009337
0.09970508
0.09824879
0.0960206
0.09309127
0.0900046
0.08724538
0.0850726
0.08361554
0.0829492
0.08306229
0.08371683
0.08433705
0.08427904
0.08351692
0.0821561
0.07783385
0.06744998
0.05377324
0.04507887
0.04505396
0.05076332
0.05871423
0.0663538
0.07114104
0.07166261
0.06586706
0.0486548
0.01390952
0.1030864
0.1009679
0.09977718
0.0983745
0.09622616
0.09334763
0.09024858
0.08745011
0.08523265
0.0837402
0.08306947
0.08326625
0.08422048
0.08554771
0.08667778
0.08716518
0.08636606
0.08185466
0.07105396
0.05694693
0.04775876
0.04730244
0.05264905
0.06020276
0.06739706
0.07176939
0.07209307
0.06619336
0.04888638
0.01394263
0.1030976
0.101007
0.0998624
0.09852551
0.09647268
0.0936505
0.0905431
0.0877099
0.08544914
0.0839209
0.08324388
0.08351161
0.08471209
0.08659856
0.08865008
0.09014909
0.08992646
0.08533659
0.07419282
0.05988432
0.05057258
0.04989689
0.05492246
0.06204076
0.06865611
0.07249916
0.07252838
0.06646509
0.04904698
0.01396356
0.1031082
0.1010473
0.09995547
0.0986946
0.09674769
0.09400824
0.0909084
0.08804055
0.08573349
0.0841676
0.08348209
0.08380968
0.0852138
0.08754743
0.09032195
0.09263314
0.09292487
0.0882759
0.07683125
0.06250837
0.05335472
0.05261335
0.05736792
0.06408442
0.07002133
0.07325322
0.0728801
0.06657831
0.04904362
0.01396079
0.103116
0.1010849
0.1000545
0.09888288
0.09704806
0.09437009
0.09127708
0.0883966
0.08606749
0.08448067
0.08379333
0.0841742
0.08574994
0.08845007
0.0918061
0.09477186
0.09548308
0.09073802
0.07903937
0.06489672
0.05613188
0.05542908
0.05990164
0.0661551
0.071345
0.07391499
0.07304581
0.06642524
0.04877893
0.01392104
0.1031186
0.1011167
0.1001585
0.0990943
0.09738969
0.09479298
0.09174268
0.08887531
0.08653294
0.08492018
0.08421682
0.08462912
0.08634122
0.08934434
0.09317867
0.09667489
0.09770323
0.09281148
0.08095499
0.06724353
0.05909653
0.05851035
0.06262077
0.06821967
0.07255536
0.07441959
0.07297074
0.0659294
0.04816472
0.01382835
0.1031155
0.1011497
0.1002915
0.0993727
0.09783766
0.09540127
0.09246522
0.08962984
0.08724913
0.08556232
0.08478909
0.08518266
0.08698413
0.09023531
0.09447062
0.09839833
0.09964521
0.09456594
0.082687
0.0696539
0.0622923
0.06185437
0.06552259
0.07035039
0.07380725
0.07491172
0.07275215
0.06511317
0.04715341
0.01366135
0.1031157
0.1012273
0.1005479
0.09986129
0.09855906
0.09634496
0.0935551
0.09071412
0.08821844
0.08637038
0.08544854
0.08576304
0.087612
0.09107574
0.09566284
0.09994689
0.1013223
0.0960256
0.08425545
0.07208877
0.0656427
0.06545829
0.06877249
0.07289705
0.07553856
0.07582655
0.07276899
0.06423708
0.04583586
0.01339495
0.1031553
0.1014786
0.1011545
0.1008447
0.09985005
0.09785813
0.09508813
0.09206239
0.08928487
0.08714423
0.08598776
0.08618244
0.08807364
0.09175867
0.09669
0.1012841
0.1027092
0.09716057
0.08557417
0.07436358
0.06894348
0.06924892
0.07254459
0.07630027
0.07837782
0.07791466
0.07382682
0.06403911
0.04467451
0.01302837
0.1033421
0.1022042
0.1025034
0.1026603
0.1019046
0.09995633
0.09692757
0.09341358
0.09009317
0.08749908
0.08605052
0.08614808
0.08815192
0.09213761
0.09745977
0.1023506
0.1037577
0.09789751
0.08646529
0.07615302
0.07178593
0.07286033
0.07666351
0.08067914
0.08273716
0.08191079
0.07702288
0.06589511
0.04488621
0.01272728
0.1039325
0.1038616
0.104807
0.1050573
0.1040776
0.1017528
0.09807363
0.09377807
0.08977135
0.0867538
0.0851515
0.0853377
0.08764388
0.09208726
0.09789084
0.1030878
0.1044193
0.09815759
0.08672943
0.07707089
0.07357626
0.07550821
0.08026663
0.08528177
0.08804464
0.08761819
0.08288279
0.0713438
0.04858345
0.01322162
0.1052752
0.1062652
0.1067646
0.1061146
0.1044442
0.101628
0.09724168
0.09210834
0.08759035
0.08451306
0.08314249
0.08373664
0.0865764
0.09161816
0.09795558
0.1034432
0.1046521
0.09791565
0.08629874
0.07693155
0.07390393
0.07644278
0.08232162
0.08913641
0.09322305
0.09388577
0.090802
0.08135741
0.058589
0.01595689
0.106603
0.1068712
0.1061765
0.1052778
0.1041532
0.1020259
0.09665632
0.08950772
0.08450065
0.08180853
0.08099809
0.08213203
0.08547271
0.09096492
0.0976403
0.1032625
0.1043149
0.0971852
0.08539374
0.07613461
0.07318927
0.07587002
0.08302042
0.09562901
0.1000859
0.1010858
0.1002915
0.09620094
0.07964217
0.02220484
0.1065492
0.106594
0.1056926
0.1045916
0.1031866
0.1003941
0.09341953
0.08700301
0.08363823
0.08203111
0.08172721
0.08279827
0.08538786
0.08931109