/*--------------------------------*- C++ -*----------------------------------*\
| =========                 |                                                 |
| \\      /  F ield         | OpenFOAM: The Open Source CFD Toolbox           |
|  \\    /   O peration     | Version:  2506                                  |
|   \\  /    A nd           | Website:  www.openfoam.com                      |
|    \\/     M anipulation  |                                                 |
\*---------------------------------------------------------------------------*/
FoamFile
{
    version     2.0;
    format      ascii;
    arch        "LSB;label=32;scalar=64";
    class       volScalarField;
    location    "150/airRegion";
    object      epsilon;
}
// * * * * * * * * * * * * * * * * * * * * * * * * * * * * * * * * * * * * * //

dimensions      [0 2 -3 0 0 0 0];

internalField   nonuniform List<scalar> 
85779
(
0.008338884
0.007763611
0.007625954
0.007583347
0.007563722
0.007528136
0.00736419
0.006627536
0.003071662
0.001762706
0.001159683
0.0008398022
0.0006600012
0.0005592622
0.0005044804
0.0004767034
0.0004757095
0.0005264814
0.0006624737
0.0009496787
0.001546218
0.002915927
0.006636495
0.007391746
0.00755952
0.007621669
0.007687695
0.007874609
0.008981657
0.02346895
0.007930508
0.006990343
0.006696269
0.006581609
0.006511323
0.006390442
0.00596009
0.00452193
0.002398544
0.00152389
0.001063995
0.0007981066
0.000641392
0.0005516275
0.0005021078
0.0004756303
0.000471037
0.000510273
0.0006234013
0.0008597778
0.001315797
0.002208654
0.003928295
0.006069903
0.006469655
0.006613534
0.006735527
0.006984303
0.008073734
0.01945215
0.007938348
0.006916093
0.006558805
0.006401745
0.006287536
0.00604261
0.004681778
0.002954996
0.00191236
0.001325952
0.0009745913
0.0007566149
0.0006219218
0.0005415056
0.0004943767
0.0004658266
0.000454991
0.000482586
0.0005768817
0.0007752273
0.001140281
0.001805911
0.003078094
0.005730882
0.006239039
0.006431485
0.006589223
0.006867402
0.007960865
0.02009628
0.007988798
0.006959463
0.006581768
0.006403213
0.00625687
0.005938375
0.004705644
0.002607704
0.00170374
0.001213338
0.0009155291
0.0007265312
0.0006067522
0.0005327652
0.0004865354
0.0004548461
0.000437015
0.0004535197
0.0005337047
0.0007116219
0.001042048
0.001649591
0.002866268
0.005671118
0.006224157
0.006448011
0.006630448
0.006922249
0.008000696
0.02063433
0.008027761
0.007005296
0.006621638
0.006431256
0.006259651
0.005849185
0.003900563
0.00234723
0.001573265
0.001141815
0.0008761326
0.000705186
0.0005950145
0.000525012
0.0004785939
0.0004432156
0.0004180534
0.0004239859
0.0004931393
0.0006600705
0.0009791103
0.001576463
0.002799093
0.005666701
0.006249777
0.00649871
0.006699418
0.006997103
0.008055746
0.02101409
0.008052438
0.007036527
0.00665063
0.006452111
0.006257353
0.005756145
0.003306359
0.002115671
0.001473169
0.001090677
0.0008477537
0.0006888738
0.0005850344
0.0005174713
0.0004702719
0.0004309857
0.0003983069
0.0003940681
0.0004537866
0.0006133951
0.0009277573
0.00152386
0.002755055
0.00565956
0.006270072
0.006541541
0.006757385
0.007060112
0.008119412
0.02127957
0.008067018
0.007055252
0.006667605
0.006462185
0.006250208
0.005703202
0.003174486
0.00202771
0.001419284
0.001057176
0.0008266678
0.0006753593
0.000575775
0.0005098122
0.0004616332
0.000418431
0.0003780945
0.0003641288
0.0004153177
0.0005686215
0.0008791297
0.001473581
0.002708504
0.005637768
0.006275576
0.006568314
0.006797586
0.007104907
0.008165697
0.02145523
0.008075432
0.007065969
0.006676332
0.006462317
0.006221135
0.005567425
0.003067687
0.001958355
0.001375215
0.00102891
0.000808228
0.0006629597
0.0005668106
0.0005021656
0.0004530586
0.0004060255
0.0003578812
0.0003348453
0.000378238
0.0005251326
0.0008304458
0.0014205
0.002653928
0.005597645
0.006266014
0.006579699
0.006821492
0.007133494
0.008195363
0.02156562
0.008080257
0.007072001
0.006679964
0.006450955
0.006115162
0.004530893
0.002798402
0.001857064
0.001325941
0.001000923
0.000790759
0.0006512636
0.0005582775
0.0004949073
0.0004450256
0.0003942914
0.0003382513
0.0003071328
0.000343414
0.000482955
0.000779854
0.001359927
0.002583548
0.00552415
0.006241478
0.006578105
0.006832232
0.007149293
0.008212437
0.02162891
0.008082765
0.007074809
0.006680708
0.006443275
0.006091738
0.004856358
0.002732282
0.001797799
0.001288371
0.0009772162
0.000775286
0.000640695
0.0005505196
0.0004883679
0.0004378693
0.0003836648
0.000319979
0.000282134
0.0003118015
0.0004419046
0.0007237827
0.00128008
0.002471622
0.005401168
0.006197462
0.006565143
0.006832898
0.007155522
0.008220292
0.02165817
0.008084032
0.007075941
0.006679762
0.006433119
0.006041799
0.004665447
0.002616785
0.001736751
0.00125359
0.0009559752
0.0007616178
0.0006314238
0.0005437313
0.0004826634
0.0004316889
0.0003745266
0.0003042197
0.000261241
0.0002845476
0.0004024023
0.0006589847
0.001161846
0.002246345
0.00506288
0.006108556
0.006540343
0.006826333
0.007155038
0.008221646
0.02166338
0.008084634
0.007076201
0.00667796
0.006422774
0.005995177
0.00448466
0.002509948
0.001680885
0.00122271
0.0009377006
0.0007501066
0.000623664
0.0005379846
0.000477752
0.0004264924
0.000367377
0.0002925001
0.0002459096
0.0002633375
0.0003686655
0.0005968271
0.00102575
0.00187389
0.003689982
0.005948615
0.006507509
0.006815563
0.007150285
0.008218729
0.02165289
0.008084835
0.007075944
0.006675938
0.006414396
0.005936475
0.003675959
0.002373173
0.001637076
0.001200228
0.0009241878
0.0007414231
0.0006176426
0.0005333133
0.0004736138
0.0004223946
0.000362808
0.0002861825
0.0002371257
0.0002493222
0.0003446438
0.0005523907
0.0009287603
0.001613605
0.002964356
0.005837965
0.006479616
0.006803872
0.007143475
0.008213549
0.02163404
0.008084912
0.007075699
0.006674509
0.006410737
0.005934388
0.003733132
0.002368427
0.001619566
0.001186756
0.0009154546
0.0007356714
0.0006134423
0.0005297507
0.0004702613
0.0004194606
0.0003610666
0.0002858275
0.0002351108
0.0002424387
0.0003303067
0.0005278009
0.0008866419
0.001534609
0.00282635
0.005796995
0.006461456
0.006793694
0.007136769
0.008208163
0.02161457
0.008084997
0.007075702
0.006673979
0.006409271
0.005942154
0.003925681
0.002384025
0.001610393
0.001179432
0.0009110752
0.0007328437
0.0006111466
0.0005273819
0.0004676728
0.0004174086
0.0003615848
0.0002908369
0.0002393493
0.0002419387
0.0003233617
0.0005145847
0.0008672822
0.001507629
0.002792625
0.005777224
0.006450155
0.006786814
0.007132175
0.008204505
0.0216017
0.008085033
0.007075798
0.006674263
0.006409356
0.005929948
0.003720001
0.002355543
0.001610432
0.001181331
0.0009122993
0.0007334015
0.0006110289
0.000526493
0.000466123
0.0004161989
0.0003633334
0.0002989
0.0002482437
0.0002468796
0.0003225563
0.0005089846
0.0008585982
0.001496837
0.002781016
0.005769074
0.006445812
0.006784582
0.007131009
0.008203819
0.02160005
0.008085052
0.007076089
0.006675455
0.006411944
0.005926025
0.003615407
0.002346336
0.001622391
0.001191676
0.0009189138
0.0007373555
0.0006131944
0.0005273285
0.0004660518
0.0004163414
0.0003661425
0.0003077995
0.0002592471
0.0002557723
0.0003274008
0.0005104667
0.0008584667
0.00149624
0.002780966
0.00577166
0.006448643
0.006787222
0.007133392
0.008206164
0.02160967
0.008084986
0.007076412
0.006677199
0.006418178
0.00594587
0.003664735
0.002393249
0.001654974
0.001211832
0.0009309913
0.0007446438
0.0006176402
0.0005300148
0.0004677659
0.0004182586
0.0003702795
0.0003170376
0.000271358
0.0002676815
0.000337602
0.0005195648
0.0008680939
0.001507628
0.002794233
0.005784607
0.006457774
0.006793661
0.00713821
0.008210392
0.02162604
0.008084752
0.007076612
0.006679298
0.006428421
0.005994719
0.003906444
0.002506389
0.001708507
0.001240466
0.0009475975
0.0007548162
0.0006241872
0.0005345155
0.0004713295
0.0004220973
0.000376
0.0003268891
0.0002845578
0.0002825965
0.0003537422
0.0005383727
0.0008929465
0.00154302
0.002838919
0.005808781
0.006471722
0.006801965
0.007143576
0.008214674
0.02164223
0.008084153
0.007076391
0.00668132
0.006440919
0.0060798
0.004811265
0.002702439
0.001778246
0.001275098
0.0009676721
0.0007673941
0.0006325972
0.0005406841
0.0004766209
0.0004277642
0.0003833769
0.0003377716
0.0002992771
0.0003010419
0.0003773785
0.0005724307
0.0009509316
0.001653695
0.003025101
0.005858446
0.006490422
0.00680997
0.007147302
0.008216965
0.02165079
0.008082881
0.00707527
0.006682288
0.006449795
0.006119869
0.004954295
0.002801129
0.001836786
0.001310544
0.0009898986
0.0007818858
0.0006425922
0.0005482919
0.0004834019
0.0004350331
0.0003923396
0.0003499917
0.0003159946
0.0003236716
0.0004104301
0.0006299796
0.001077037
0.001986024
0.003884263
0.005991512
0.006517483
0.006815577
0.007147085
0.008215162
0.02164433
0.008080268
0.007072236
0.006681427
0.006460071
0.006163205
0.004790764
0.00292559
0.001913899
0.001353883
0.001015736
0.0007983846
0.0006539532
0.00055704
0.0004913358
0.0004435772
0.0004026989
0.0003636864
0.0003350243
0.0003505399
0.0004512144
0.0007010415
0.001227112
0.002381535
0.005256975
0.006154509
0.006542981
0.00681556
0.007140517
0.008207032
0.02161452
0.008075522
0.007066365
0.006677742
0.006467556
0.006240194
0.005630359
0.003123208
0.001994758
0.001397925
0.001042696
0.0008159659
0.0006661809
0.0005665036
0.0004999835
0.0004529693
0.000414144
0.000378802
0.0003564095
0.0003810113
0.0004954332
0.0007666608
0.001327742
0.002537913
0.005463412
0.006207417
0.006550092
0.006805735
0.007124835
0.008189981
0.02155162
0.008067214
0.007055835
0.006669071
0.006465944
0.006259944
0.005727344
0.003202483
0.002052277
0.001437626
0.001069624
0.0008342455
0.0006789548
0.0005762716
0.0005088477
0.0004626907
0.00042623
0.0003950644
0.000379897
0.0004144078
0.0005415173
0.0008270844
0.001402784
0.002623546
0.005539769
0.006226629
0.00654193
0.006783035
0.007096776
0.008160641
0.02144262
0.008052617
0.007037052
0.006651862
0.006455068
0.006264634
0.005772925
0.003317512
0.002139475
0.001493036
0.001104197
0.0008560115
0.0006930607
0.0005862859
0.0005175183
0.000472211
0.0004384297
0.0004120224
0.00040498
0.0004499919
0.0005888119
0.0008845508
0.001466644
0.002686565
0.005586197
0.006228473
0.0065184
0.006744462
0.007052859
0.008114974
0.02126915
0.008027813
0.00700554
0.006622337
0.00643336
0.006265384
0.005852558
0.003706714
0.002352832
0.001598149
0.001159067
0.0008861999
0.0007103359
0.0005970364
0.0005258881
0.0004811662
0.0004502712
0.0004291692
0.0004310476
0.000487139
0.0006373573
0.0009416623
0.001527096
0.002740483
0.005609882
0.006215265
0.006479266
0.00668853
0.006991049
0.008052714
0.0210066
0.007988704
0.006959403
0.006581918
0.006404395
0.00626219
0.005939452
0.004246028
0.002617588
0.001735791
0.001234141
0.0009273544
0.0007326587
0.0006094839
0.0005342978
0.0004895229
0.0004614731
0.0004460577
0.0004575478
0.0005256452
0.0006886166
0.001003968
0.001595936
0.002801508
0.00562336
0.006196338
0.00643263
0.006621885
0.006917511
0.007998585
0.02062956
0.007938164
0.006915828
0.006558575
0.006402154
0.006290734
0.006066674
0.005120401
0.003033312
0.001957427
0.001350982
0.0009882448
0.0007636868
0.0006252706
0.0005435356
0.0004975905
0.0004719582
0.0004622939
0.0004839784
0.0005658049
0.0007462915
0.001084356
0.001704814
0.002926454
0.005675079
0.006215259
0.006420024
0.006583095
0.006864005
0.007959382
0.02009384
0.007930327
0.006990025
0.006695833
0.006581309
0.006512495
0.006399081
0.005996589
0.004216413
0.00244435
0.001555037
0.001079791
0.0008060021
0.0006452203
0.0005540185
0.0005053962
0.0004811704
0.0004767095
0.0005088787
0.0006069913
0.0008145166
0.001204721
0.001932384
0.003336621
0.005951785
0.006442642
0.006605284
0.006731799
0.006982238
0.008072869
0.01945129
0.008338779
0.007763388
0.007625559
0.007582751
0.007563251
0.007530269
0.007381801
0.006687631
0.003122623
0.001788983
0.001173908
0.0008474584
0.0006639643
0.0005618324
0.0005077849
0.0004818673
0.0004802449
0.0005223357
0.0006391382
0.0008830051
0.001364605
0.002395247
0.005083174
0.007213977
0.00753804
0.007618891
0.007686889
0.007874045
0.008981473
0.02346897
0.007930522
0.006990418
0.006696457
0.006581968
0.006511916
0.006389764
0.005919734
0.003761046
0.002317877
0.001517849
0.001065083
0.0007990172
0.0006414531
0.0005509298
0.0005009998
0.0004745941
0.0004704737
0.0005104413
0.0006254738
0.0008690243
0.001350156
0.002340202
0.00470474
0.00613869
0.00648603
0.006622075
0.00674164
0.006988943
0.00807674
0.01946409
0.007248989
0.00559128
0.004914585
0.004595843
0.004387942
0.004142944
0.003687851
0.002768313
0.00191074
0.001346124
0.0009882362
0.0007631144
0.0006247695
0.0005438883
0.00049858
0.0004731008
0.0004653461
0.0004940808
0.0005873921
0.0007856881
0.001152566
0.001792913
0.002806996
0.003798649
0.00427059
0.004516238
0.004702068
0.004952569
0.005589725
0.008442322
0.007202232
0.005342095
0.004487111
0.004043523
0.003742114
0.003416568
0.002900268
0.002192517
0.001609041
0.001195159
0.0009136951
0.0007268914
0.0006072771
0.0005344566
0.0004908999
0.0004629997
0.0004489486
0.000466126
0.0005408927
0.0007034473
0.0009924058
0.001463204
0.002170893
0.003054442
0.003552526
0.003842917
0.004064654
0.004330477
0.004912957
0.007445641
0.007250664
0.005355016
0.004433251
0.003925607
0.003563166
0.003178457
0.002608717
0.001945142
0.001449504
0.001102268
0.0008627552
0.000700325
0.0005936886
0.0005263652
0.000483157
0.0004518049
0.000430713
0.0004367406
0.0004968066
0.0006373866
0.0008899124
0.001302741
0.00194361
0.002825759
0.003359039
0.003690972
0.003955115
0.004268469
0.004943131
0.008043667
0.007295219
0.005404484
0.004460814
0.003921732
0.003519337
0.003085855
0.00243383
0.001809203
0.001358155
0.001045491
0.000829491
0.0006817583
0.0005832715
0.0005191559
0.0004752463
0.0004399006
0.0004114232
0.0004067887
0.0004550514
0.0005823311
0.0008192844
0.001215601
0.001849508
0.002757275
0.003334522
0.003708303
0.004010866
0.004362469
0.005106605
0.008679708
0.007324174
0.005442834
0.004491633
0.003935292
0.003504766
0.003032376
0.00230141
0.001715184
0.001298028
0.001007714
0.0008062825
0.0006677249
0.0005743495
0.0005119986
0.0004668359
0.0004272846
0.0003912049
0.0003763311
0.0004145671
0.0005326957
0.0007619735
0.00115359
0.00179189
0.002724828
0.003346882
0.003759264
0.004092497
0.004468531
0.005252382
0.009140068
0.007340924
0.005465937
0.004510631
0.00394217
0.003490297
0.002994573
0.002242199
0.001663437
0.001259676
0.0009810883
0.0007884305
0.0006558096
0.0005658465
0.0005045604
0.0004580115
0.0004142482
0.0003703528
0.0003457151
0.0003751057
0.0004857458
0.0007093504
0.001097714
0.001738323
0.002684533
0.003351055
0.003798557
0.004156811
0.004549041
0.005354512
0.009445162
0.007349903
0.005477928
0.004518456
0.003937581
0.00346053
0.002933373
0.002182785
0.001617036
0.001226358
0.0009579575
0.0007725228
0.0006446697
0.0005574482
0.0004970407
0.0004492254
0.0004013116
0.0003493122
0.0003156136
0.0003371943
0.0004408103
0.0006581883
0.001041343
0.00167957
0.002628223
0.003335715
0.003815694
0.004195886
0.004600649
0.005418681
0.0096349
0.00735429
0.005483006
0.004518532
0.003922153
0.003404943
0.002780983
0.002089223
0.001561999
0.001192304
0.0009358496
0.0007575952
0.0006341236
0.0005493948
0.0004898954
0.0004410358
0.0003890348
0.0003286424
0.0002869849
0.0003018131
0.0003981316
0.0006071208
0.0009810864
0.001612123
0.002564637
0.00329993
0.003811238
0.004212271
0.004628254
0.005454455
0.009741616
0.007356047
0.005484211
0.004515332
0.003908005
0.003371211
0.002732911
0.002035389
0.001521574
0.001164291
0.0009166451
0.0007442576
0.0006245499
0.0005420604
0.0004834905
0.0004338045
0.0003778462
0.0003091357
0.0002611188
0.0002701899
0.0003582707
0.0005549133
0.0009114544
0.0015222
0.002467563
0.003238713
0.003787366
0.004210712
0.004637772
0.005469882
0.009788759
0.00735644
0.005483459
0.004510499
0.003893601
0.003340382
0.002665797
0.001981423
0.0014846
0.001139409
0.000899777
0.0007325965
0.0006161842
0.0005356434
0.0004778963
0.0004275482
0.000368098
0.0002921434
0.0002396714
0.0002437405
0.0003224497
0.0005020228
0.0008285193
0.001391037
0.002293392
0.003140988
0.003746349
0.004196275
0.004634661
0.005471289
0.009793946
0.007356212
0.005481935
0.004505361
0.003880184
0.003312815
0.002606327
0.001933333
0.001452119
0.001118083
0.0008856147
0.0007229029
0.0006091977
0.0005301653
0.0004729891
0.000422179
0.0003603916
0.0002796041
0.0002243171
0.0002238948
0.0002934129
0.0004557296
0.0007489338
0.001245007
0.002041139
0.00302369
0.003697923
0.004174948
0.004623787
0.005463705
0.00977201
0.007355787
0.005480398
0.004501185
0.003870616
0.003292436
0.002539135
0.001896614
0.001428849
0.001102538
0.0008750946
0.0007155587
0.0006037166
0.0005256258
0.0004687723
0.0004179185
0.0003556103
0.0002732215
0.0002160729
0.0002113478
0.0002729372
0.0004222607
0.000692284
0.001142211
0.001867972
0.002928996
0.003654626
0.004152418
0.004609504
0.005451537
0.009736103
0.007355441
0.005479293
0.004498353
0.00386458
0.003283403
0.002533517
0.001882518
0.001415271
0.001092621
0.0008682709
0.0007106668
0.0005998115
0.0005220633
0.000465308
0.0004149552
0.0003541755
0.0002736521
0.0002151212
0.0002059508
0.0002606753
0.0004013263
0.0006602361
0.001094192
0.001802196
0.002871515
0.003622726
0.004133052
0.004595932
0.005439227
0.009699861
0.007355321
0.005478859
0.004497062
0.003861389
0.003278869
0.002539124
0.001875478
0.001407919
0.001087651
0.0008650377
0.0007082702
0.0005975811
0.0005195623
0.0004625236
0.0004128618
0.0003553438
0.0002802295
0.0002209494
0.0002071628
0.0002555321
0.0003896785
0.0006426293
0.001070639
0.001772734
0.002836293
0.003602444
0.004120199
0.004586784
0.005430924
0.00967611
0.007355459
0.005479191
0.004497754
0.003862751
0.003279702
0.002526675
0.001875522
0.001410004
0.001089213
0.0008659867
0.0007086447
0.000597283
0.0005184401
0.0004606729
0.0004113844
0.000357513
0.0002900086
0.0002317647
0.000214076
0.0002568035
0.0003858844
0.0006353887
0.001061145
0.001761674
0.002823299
0.003595167
0.004116161
0.004584458
0.005429297
0.00967318
0.007355844
0.005480248
0.004500209
0.00386775
0.00328636
0.002525387
0.001885138
0.001420496
0.001096916
0.0008710747
0.0007118407
0.0005990563
0.0005190111
0.0004603384
0.0004112874
0.0003605338
0.000300124
0.0002444041
0.000224858
0.0002638906
0.0003897891
0.0006379266
0.001063842
0.001766034
0.002832266
0.003601175
0.004121248
0.004589159
0.005434477
0.009691171
0.007356398
0.005481891
0.004504295
0.003876902
0.003302508
0.002552778
0.001912258
0.001441171
0.00111096
0.0008802472
0.000717804
0.0006029203
0.0005214493
0.0004619399
0.0004131797
0.0003648811
0.0003100916
0.0002576364
0.0002381912
0.0002759575
0.000401191
0.0006503937
0.00107894
0.001785503
0.002860881
0.00361862
0.004133501
0.004598804
0.005444014
0.009721831
0.007356976
0.00548384
0.004509554
0.003889638
0.003328561
0.002613857
0.001958027
0.001471187
0.001130392
0.0008929293
0.0007262538
0.00060875
0.0005257238
0.0004655328
0.0004172015
0.0003709011
0.0003204018
0.0002715006
0.0002539295
0.0002930902
0.0004208147
0.0006747834
0.001110514
0.001824631
0.002903744
0.003644462
0.004149576
0.004609928
0.005454003
0.009752828
0.007357312
0.005485628
0.004515255
0.003904378
0.003362093
0.002715113
0.002018651
0.001508139
0.001154044
0.0009085377
0.0007368782
0.0006163511
0.0005316718
0.0004709382
0.0004231795
0.0003786561
0.0003316232
0.0002865431
0.0002725109
0.0003160736
0.0004509983
0.0007178839
0.001175286
0.001911302
0.002967088
0.003677031
0.004165721
0.004618501
0.005460064
0.009771061
0.007356973
0.005486507
0.004520348
0.003919087
0.00339329
0.002774762
0.002070896
0.001546041
0.001180192
0.0009264385
0.0007493474
0.0006254765
0.0005390446
0.0004778674
0.0004308246
0.0003880546
0.0003441476
0.0003033417
0.0002945421
0.000345961
0.0004950848
0.0007913167
0.001309877
0.002132235
0.003075594
0.003716833
0.004178026
0.004620197
0.005457614
0.009763596
0.007355192
0.005485304
0.004523979
0.003936165
0.003440606
0.002857073
0.002142456
0.001593827
0.001211268
0.0009470626
0.0007635356
0.0006358512
0.0005475066
0.0004859399
0.0004397656
0.0003988866
0.00035815
0.0003223114
0.0003203774
0.0003824966
0.0005502013
0.000882441
0.001472581
0.002402209
0.003189468
0.003751512
0.004180657
0.004610254
0.00544163
0.009715665
0.007350764
0.005480078
0.004523238
0.003948374
0.003483526
0.002970419
0.002216669
0.001642239
0.001243587
0.0009690093
0.0007787961
0.0006470212
0.0005566112
0.0004946766
0.0004495354
0.0004108128
0.0003735805
0.0003435838
0.0003498602
0.0004237781
0.0006079847
0.0009628194
0.001580157
0.002521255
0.003250887
0.003764481
0.004166536
0.004583207
0.005406054
0.009609824
0.00734171
0.005467849
0.004514597
0.003950168
0.003505348
0.003014965
0.002264019
0.001682721
0.001274561
0.0009914637
0.0007947557
0.0006586232
0.0005658963
0.0005035296
0.0004595696
0.0004233501
0.0003901429
0.0003669452
0.0003824934
0.000468393
0.00066603
0.001033503
0.001657766
0.002587512
0.003278531
0.003753693
0.004130267
0.00453293
0.005342818
0.009422584
0.007324802
0.005444384
0.004494805
0.003941513
0.003515992
0.003048081
0.002320162
0.001734334
0.00131345
0.001018614
0.0008130846
0.0006710836
0.0005751751
0.0005120242
0.0004692891
0.0004359267
0.0004073499
0.0003918979
0.0004176087
0.0005155257
0.0007245389
0.001099577
0.001722772
0.002633315
0.003283679
0.003720303
0.004069227
0.004454323
0.005242199
0.009121193
0.007295618
0.005405568
0.004463217
0.003926879
0.003529711
0.003101357
0.002443292
0.001831771
0.001377464
0.001058657
0.0008375162
0.0006859057
0.0005848374
0.0005200092
0.0004782932
0.0004480315
0.0004246584
0.0004178291
0.0004546361
0.0005652325
0.0007858131
0.001168062
0.001788675
0.002676676
0.003280762
0.003675395
0.003991203
0.004350502
0.005098337
0.008665182
0.007250823
0.005355618
0.00443488
0.003929645
0.003572615
0.003195003
0.002621819
0.001974533
0.001473206
0.001117947
0.0008722174
0.0007053635
0.0005959467
0.0005278549
0.0004865509
0.0004593708
0.0004416062
0.0004441947
0.0004934096
0.0006190428
0.0008558352
0.00125335
0.001881872
0.002755419
0.003313499
0.003663712
0.003938998
0.004258718
0.00493661
0.008033338
0.007202199
0.005342301
0.004488047
0.004046312
0.003749221
0.003432924
0.002942448
0.002235475
0.001639932
0.00121433
0.000924929
0.000732899
0.0006101657
0.0005364189
0.0004944349
0.0004699178
0.0004578473
0.0004705313
0.0005341397
0.0006801021
0.0009460921
0.001385879
0.00206755
0.002976549
0.00350977
0.003819854
0.004051689
0.004322751
0.00490789
0.00743878
0.00724885
0.005591203
0.004914895
0.004597414
0.004393414
0.00415964
0.003732409
0.002865466
0.001966596
0.001373015
0.001002027
0.0007701508
0.0006282121
0.0005461982
0.0005020957
0.0004792561
0.0004723577
0.0004954429
0.0005757874
0.0007501477
0.001069348
0.001614516
0.00249396
0.003673272
0.004223856
0.004496949
0.004692595
0.004947199
0.005586364
0.008438153
0.007930349
0.006990116
0.006696039
0.006581691
0.006513482
0.006402816
0.005998658
0.004226017
0.002449306
0.001557664
0.001081331
0.0008067571
0.000645256
0.0005534396
0.0005044469
0.0004802059
0.000476129
0.0005089287
0.0006076368
0.0008156011
0.001206252
0.001935091
0.003343536
0.005967062
0.006454385
0.006613901
0.006738315
0.006987102
0.00807599
0.01946332
0.00793828
0.006916092
0.006559018
0.006402472
0.006289653
0.006047633
0.004669554
0.0029237
0.001916415
0.001333557
0.0009798369
0.0007591892
0.0006220538
0.0005395902
0.0004913169
0.0004630066
0.0004538282
0.0004834645
0.0005804155
0.0007874462
0.001185653
0.001987771
0.004051393
0.005829871
0.006266927
0.006448011
0.006601908
0.00687725
0.007967125
0.02011514
0.007202203
0.00534218
0.004487553
0.004044736
0.003744848
0.003421397
0.00290793
0.002199574
0.00161568
0.001199994
0.0009167202
0.0007282888
0.0006071493
0.000533001
0.0004886748
0.0004609575
0.0004482656
0.0004671461
0.0005433369
0.0007088374
0.001007479
0.001505363
0.002271499
0.003099123
0.003579039
0.003861418
0.004079343
0.004343088
0.00492563
0.007472655
0.007134912
0.005020196
0.003921032
0.003304742
0.002898346
0.002553985
0.002181614
0.001759245
0.001378108
0.00107678
0.0008542674
0.0006973343
0.0005917336
0.0005239436
0.0004803562
0.0004497272
0.0004308587
0.0004386798
0.0004968793
0.0006277338
0.0008524347
0.00119133
0.001643979
0.002136691
0.002523272
0.002791032
0.002991739
0.003178843
0.003443724
0.004255401
0.00717822
0.005013044
0.00381858
0.003114932
0.002644682
0.002271426
0.001912503
0.001557245
0.001247578
0.0009996173
0.0008115391
0.0006749278
0.0005800103
0.0005163086
0.0004721913
0.000437724
0.0004119966
0.0004090614
0.0004523894
0.0005596165
0.000743603
0.001014414
0.001370787
0.001774694
0.002128573
0.002395587
0.0026039
0.002793762
0.003045728
0.003797623
0.00722155
0.005058633
0.003832258
0.003088521
0.002580635
0.002181082
0.001807439
0.001465836
0.001180547
0.0009556247
0.000784954
0.0006597543
0.0005710915
0.0005094193
0.0004638772
0.0004251276
0.0003922166
0.0003789499
0.000410102
0.0005019382
0.000665561
0.0009105716
0.001241112
0.001632798
0.001998973
0.002291071
0.002531385
0.00276281
0.003090013
0.004074892
0.007249916
0.005096392
0.003859539
0.003096913
0.002566458
0.00214854
0.001758133
0.001418766
0.001143225
0.0009290262
0.0007672969
0.0006483805
0.0005632159
0.0005023492
0.0004549946
0.0004118212
0.0003714651
0.0003482513
0.0003691331
0.0004503467
0.0006034682
0.0008395771
0.001167213
0.001568636
0.001964269
0.002291026
0.002567086
0.002838187
0.00322971
0.004430083
0.007266059
0.00511909
0.003877652
0.003104403
0.002560039
0.002129969
0.001730569
0.00139032
0.001118788
0.0009100968
0.000753448
0.0006383228
0.0005553229
0.0004948099
0.0004456852
0.0003981073
0.0003499495
0.0003172301
0.0003292732
0.0004022923
0.0005487226
0.0007811437
0.001111319
0.00152635
0.001950819
0.002311084
0.002617819
0.002917395
0.003349063
0.004700627
0.00727433
0.005130443
0.00388551
0.00310414
0.002549303
0.00210757
0.001703715
0.001364871
0.001097488
0.0008934082
0.0007407328
0.0006285274
0.0005472589
0.0004871377
0.0004365408
0.0003845683
0.0003280324
0.0002865055
0.0002910601
0.0003570167
0.0004973905
0.0007261173
0.00105756
0.001482773
0.001930528
0.002320336
0.002652437
0.002972226
0.003427683
0.004874807
0.00727796
0.005134776
0.003886339
0.003097286
0.002531803
0.002074092
0.001671302
0.0013382
0.00107674
0.0008775688
0.0007286173
0.0006190428
0.0005394317
0.0004799433
0.0004282809
0.0003718105
0.0003061591
0.0002570343
0.0002555636
0.0003148632
0.0004480985
0.0006706382
0.0009996417
0.001430722
0.001895018
0.002311312
0.002665469
0.003000868
0.00347075
0.004971396
0.007279016
0.005135269
0.003883697
0.00308874
0.002516569
0.002050607
0.001645918
0.001315726
0.001058523
0.000863321
0.0007175477
0.0006103153
0.0005323136
0.0004736684
0.0004213199
0.0003601944
0.0002850461
0.0002302366
0.0002242156
0.0002767906
0.0004008341
0.00061294
0.0009331985
0.001363845
0.001841945
0.002284514
0.0026597
0.00300835
0.003487147
0.005010117
0.007278788
0.005133913
0.003879528
0.003079646
0.00250222
0.002028105
0.001622788
0.001295721
0.001042466
0.0008508136
0.0007078401
0.0006026672
0.0005261019
0.0004682527
0.0004154082
0.0003498651
0.0002662796
0.0002081018
0.0001986172
0.0002442255
0.0003571445
0.0005542411
0.0008573884
0.001278067
0.001771438
0.002243902
0.00264029
0.003000707
0.003484786
0.005007248
0.007278049
0.00513193
0.003875152
0.003071199
0.002489456
0.002008324
0.001602689
0.001278651
0.001028996
0.0008404273
0.0006997805
0.0005962366
0.0005207093
0.0004633082
0.0004100219
0.000341425
0.0002525078
0.0001926675
0.0001800612
0.0002188034
0.0003206778
0.0005023217
0.000785529
0.001188721
0.001693283
0.002197945
0.002613852
0.002984007
0.00347061
0.004977756
0.007277254
0.005130082
0.003871547
0.003064801
0.002480053
0.001993539
0.00158823
0.001266194
0.001019014
0.0008326272
0.0006935888
0.0005910741
0.0005160846
0.0004588571
0.0004055443
0.0003363298
0.0002459803
0.0001849946
0.0001689531
0.0002012005
0.0002936656
0.000463193
0.0007312389
0.001119561
0.001624048
0.002155671
0.002586374
0.002963693
0.003450784
0.004934904
0.007276674
0.005128789
0.003869122
0.003060603
0.002474192
0.001986064
0.001579563
0.001258265
0.001012594
0.0008275458
0.0006893756
0.0005872469
0.0005122848
0.0004550759
0.0004024654
0.0003353769
0.000247471
0.0001851788
0.0001650598
0.0001911098
0.0002758985
0.0004370776
0.000696603
0.001077641
0.001579104
0.002123107
0.002562907
0.002944982
0.003431558
0.00489286
0.00727645
0.005128278
0.003868096
0.003058665
0.002471358
0.001982501
0.001575178
0.00125445
0.001009664
0.0008252177
0.0006872352
0.0005848837
0.0005093895
0.000451777
0.0004000477
0.000337515
0.0002562777
0.0001927448
0.0001679433
0.0001879969
0.0002664942
0.0004219466
0.0006766555
0.001054216
0.00155462
0.002102557
0.002547573
0.002932637
0.003418901
0.0048656
0.007276635
0.005128647
0.003868694
0.003059609
0.002472516
0.00198341
0.001576682
0.001255837
0.001010713
0.0008258743
0.00068738
0.0005842932
0.000507793
0.00044915
0.0003975278
0.0003399504
0.0002684923
0.0002057329
0.0001766992
0.000191369
0.0002650717
0.0004172132
0.0006699545
0.001046524
0.001546795
0.002095964
0.002543218
0.002929815
0.003416799
0.004862845
0.007277211
0.005129858
0.003870818
0.003063137
0.002477267
0.001989089
0.001583505
0.001262091
0.00101566
0.000829523
0.0006898791
0.0005856834
0.0005079774
0.0004481575
0.0003964472
0.0003427558
0.0002801169
0.000220126
0.0001891425
0.0002004483
0.0002715285
0.0004229203
0.0006763358
0.001054099
0.001555356
0.002103675
0.002550184
0.00293676
0.003425412
0.004884677
0.007278099
0.005131775
0.003874323
0.0030692
0.002485843
0.002001236
0.001596412
0.001273307
0.001024432
0.0008360801
0.0006946856
0.0005891042
0.000510225
0.0004495196
0.0003979616
0.0003470478
0.0002908286
0.0002344027
0.0002035565
0.0002139229
0.0002849766
0.0004381669
0.0006945061
0.001075139
0.001578095
0.00212316
0.002565883
0.002950596
0.003440926
0.004921245
0.007279135
0.005134127
0.003878839
0.003077314
0.002497762
0.002019755
0.001614888
0.001288823
0.00103652
0.0008452373
0.0007016201
0.0005944459
0.000514484
0.0004532506
0.0004021377
0.000353311
0.0003015392
0.0002487633
0.0002197606
0.0002316159
0.000305318
0.000462884
0.0007245227
0.001110072
0.001617387
0.002151444
0.002586354
0.002966836
0.003457651
0.004959041