/*--------------------------------*- C++ -*----------------------------------*\
| =========                 |                                                 |
| \\      /  F ield         | OpenFOAM: The Open Source CFD Toolbox           |
|  \\    /   O peration     | Version:  2506                                  |
|   \\  /    A nd           | Website:  www.openfoam.com                      |
|    \\/     M anipulation  |                                                 |
\*---------------------------------------------------------------------------*/
FoamFile
{
    version     2.0;
    format      ascii;
    arch        "LSB;label=32;scalar=64";
    class       volScalarField;
    location    "150/airRegion";
    object      k;
}
// * * * * * * * * * * * * * * * * * * * * * * * * * * * * * * * * * * * * * //

dimensions      [0 2 -2 0 0 0 0];

internalField   nonuniform List<scalar> 
85779
(
0.09241727
0.08935098
0.0884564
0.08809029
0.08783243
0.08734299
0.08562471
0.07898883
0.04952686
0.03634564
0.02930975
0.02521618
0.0229003
0.02177752
0.02136406
0.02120876
0.02109175
0.02123926
0.02240327
0.0257126
0.03279132
0.0471663
0.07882093
0.08570134
0.0873554
0.08785736
0.08803918
0.08784101
0.08605735
0.07249633
0.09017739
0.08488926
0.08291005
0.08194434
0.08118231
0.07983626
0.07574109
0.06340299
0.04393489
0.03426356
0.02846048
0.02484861
0.02274083
0.02171322
0.02133724
0.02117219
0.02097332
0.02092407
0.021785
0.02457418
0.03038404
0.04080754
0.05795899
0.07606841
0.07983036
0.08097836
0.08135504
0.08101291
0.07860495
0.06396829
0.09013526
0.08423339
0.08175625
0.08041884
0.07924791
0.07683281
0.06574044
0.05026546
0.03934299
0.03227041
0.02754924
0.02443949
0.0225496
0.02157426
0.02114588
0.02086548
0.02050907
0.0202603
0.02087221
0.02323256
0.02810007
0.03638318
0.04989842
0.07268533
0.07744122
0.07896578
0.07958706
0.07955541
0.07791258
0.06537273
0.09039869
0.08438834
0.08171448
0.0801711
0.07870552
0.0756653
0.0652524
0.04658973
0.03697362
0.03092578
0.02683217
0.02407705
0.02235368
0.02140526
0.02089928
0.02047207
0.01992575
0.01945815
0.01984357
0.02192762
0.0263769
0.03403242
0.04709771
0.07161375
0.07678413
0.07855411
0.07941051
0.07968814
0.07855105
0.06653447
0.09062623
0.08463284
0.08188272
0.08021812
0.07851867
0.07466701
0.05845937
0.04385694
0.03539005
0.02997497
0.02627628
0.0237577
0.02214607
0.02119994
0.02060119
0.02001067
0.01925433
0.01855535
0.01873673
0.02065899
0.02498569
0.03257927
0.04583947
0.07122214
0.07665972
0.07863216
0.07968328
0.08017063
0.07927269
0.06734848
0.09077791
0.08481694
0.08203127
0.08028295
0.07837023
0.07372391
0.05329656
0.04151583
0.03418343
0.02925775
0.02582801
0.02346563
0.02192215
0.02095741
0.02025433
0.01948941
0.0185093
0.01757549
0.01757433
0.01940384
0.02374104
0.0314453
0.04498471
0.07096333
0.07664422
0.07880217
0.08000961
0.08062783
0.07981141
0.06791484
0.09086965
0.08493134
0.08212094
0.08030438
0.07823205
0.0731709
0.05184792
0.04042192
0.03342662
0.02873168
0.02545881
0.0231938
0.02168671
0.02068717
0.01987031
0.0189225
0.0177093
0.01654681
0.01638433
0.01815692
0.02255064
0.03040124
0.04419946
0.07066719
0.07659496
0.07892948
0.08026658
0.08097262
0.08018472
0.06828856
0.0909226
0.0849959
0.08216069
0.08026073
0.07792529
0.07198653
0.05072158
0.03958563
0.03282639
0.02829836
0.02513884
0.02294117
0.02145119
0.02040562
0.01946753
0.01833088
0.01688008
0.01550581
0.01520413
0.01693116
0.02137447
0.02934651
0.04335891
0.07025583
0.07646351
0.07897529
0.08042706
0.08119975
0.0804252
0.06852317
0.09095221
0.08502943
0.08216526
0.08012525
0.07700493
0.06422073
0.04844084
0.03857719
0.03224206
0.02790748
0.02485339
0.02271035
0.0212276
0.02013025
0.01906777
0.01774186
0.01605755
0.01450023
0.01408146
0.01575195
0.02019111
0.02819924
0.04233218
0.06956814
0.07621402
0.07893129
0.08049556
0.08132618
0.08056383
0.06865787
0.09096679
0.08504224
0.0821542
0.08003094
0.07676002
0.06645955
0.04765091
0.03788249
0.03175915
0.02756775
0.02460193
0.02250501
0.02102547
0.01987677
0.01869478
0.01719067
0.01529221
0.01359072
0.01307281
0.01465342
0.01898252
0.02683406
0.04082959
0.06838822
0.07576875
0.07878962
0.08048529
0.08137325
0.08062669
0.06872054
0.0909733
0.08504432
0.08213338
0.07992216
0.07631178
0.06488195
0.04652944
0.03720715
0.03132546
0.02727129
0.02438584
0.02232964
0.02085256
0.01965919
0.01837506
0.01672274
0.01465075
0.01284605
0.01223641
0.01368025
0.01776079
0.02511705
0.0382212
0.06528896
0.07487657
0.07853101
0.0804129
0.08136252
0.08063574
0.0687324
0.09097565
0.08504126
0.08210892
0.07981822
0.07589406
0.06332952
0.04550027
0.03660647
0.03095297
0.02702372
0.02420844
0.02218674
0.02071297
0.01948848
0.01813541
0.01638777
0.01420354
0.01232707
0.01161755
0.01288658
0.01664907
0.02327602
0.034257
0.05336187
0.07327891
0.07818876
0.08030492
0.08131556
0.08060989
0.068711
0.09097573
0.08503596
0.08208637
0.07973387
0.07535292
0.05686402
0.04426315
0.03612679
0.03067162
0.02683597
0.02407282
0.02207679
0.02060804
0.01937148
0.01799501
0.01622202
0.01400207
0.01207437
0.01124669
0.01231996
0.01580296
0.02188138
0.03133526
0.04655299
0.0721333
0.07790339
0.08019507
0.08125312
0.08056631
0.06867183
0.09097543
0.08503198
0.08207147
0.07969943
0.07532162
0.05719685
0.04412071
0.03589976
0.03049635
0.02671242
0.02398115
0.02200092
0.02053929
0.01931243
0.01796361
0.0162422
0.0140695
0.01210643
0.01114241
0.01200634
0.01527639
0.02112471
0.03020148
0.04492582
0.07168975
0.07773012
0.08010577
0.08119412
0.0805219
0.06863115
0.09097561
0.08503089
0.08206529
0.07968704
0.07539277
0.05867117
0.04421094
0.03579585
0.03041193
0.02665422
0.02393633
0.02196214
0.02050978
0.01931365
0.01804105
0.01644353
0.0143971
0.01241568
0.01130343
0.01194247
0.01501797
0.02074685
0.02974471
0.04445289
0.07149217
0.07763023
0.08004781
0.08115455
0.08049194
0.06860422
0.09097601
0.08503196
0.08206804
0.07968578
0.07527991
0.05706512
0.04399135
0.03580594
0.03043556
0.02666907
0.02394231
0.02196392
0.02052215
0.01937192
0.01820642
0.01677397
0.01490751
0.01294581
0.0117001
0.01211274
0.01499241
0.02062047
0.02958261
0.04430019
0.07141769
0.07759345
0.08002927
0.08114467
0.08048619
0.06860082
0.09097681
0.08503578
0.08208011
0.07970896
0.07524873
0.05628512
0.04398793
0.03596503
0.03056604
0.02675633
0.02399933
0.0220067
0.02057456
0.01947665
0.01842833
0.01716797
0.01548973
0.01358015
0.01225214
0.01248433
0.0151869
0.02071613
0.02963554
0.04433499
0.07144525
0.07761771
0.08005097
0.0811652
0.08050505
0.06862105
0.09097753
0.08504122
0.08209971
0.07977042
0.07543365
0.05678603
0.04448997
0.03633288
0.03080876
0.02691402
0.02410582
0.0220893
0.02066401
0.01961793
0.01868173
0.01758075
0.0160792
0.0142481
0.01289101
0.01300922
0.01558473
0.02103805
0.02991954
0.04457479
0.07157298
0.07769652
0.08010458
0.0812069
0.08053949
0.0686553
0.0909775
0.08504702
0.08212533
0.07987335
0.07587728
0.0588715
0.04557075
0.03690666
0.03115131
0.02713454
0.02425829
0.02220973
0.02078769
0.0197898
0.01895557
0.01799625
0.01665325
0.01491918
0.01358497
0.01366667
0.01619323
0.02164415
0.03057757
0.04523234
0.07182741
0.07782372
0.08017625
0.08125435
0.08057495
0.06868889
0.09097535
0.08505087
0.08215293
0.08000145
0.0766404
0.06603346
0.04731842
0.03763453
0.03156741
0.0274065
0.02445168
0.02236527
0.02094319
0.01998934
0.01924718
0.01841381
0.01721294
0.01558892
0.0143228
0.01444915
0.01704629
0.02270407
0.03212964
0.04738904
0.07238028
0.07801326
0.08025219
0.08128991
0.08059489
0.06870617
0.09096889
0.08504912
0.08217432
0.08010158
0.07702672
0.06732366
0.04834147
0.03830822
0.03201764
0.02771907
0.0246813
0.02255285
0.02112779
0.0202143
0.01955649
0.01883762
0.01776708
0.0162633
0.01510255
0.01535048
0.01817586
0.02446584
0.03576132
0.05531451
0.07374808
0.0783086
0.08031905
0.08129483
0.08058195
0.06869155
0.09095372
0.08503516
0.08218594
0.08021821
0.07742115
0.06621399
0.0495316
0.0391198
0.03253841
0.02807542
0.02494418
0.0227685
0.02133725
0.02046086
0.01988197
0.01927061
0.01832419
0.01695178
0.01592824
0.01635326
0.01948087
0.02649678
0.0399189
0.06705774
0.07536283
0.0785998
0.08034532
0.08124757
0.08051734
0.06862762
0.09092448
0.08500214
0.08217856
0.08031685
0.07810699
0.07252376
0.0512725
0.03998063
0.03309034
0.02846546
0.02523726
0.02300866
0.02156598
0.02072244
0.02021839
0.01971127
0.0188883
0.01766159
0.01680385
0.01743024
0.02079401
0.02811216
0.0419165
0.06907068
0.07594112
0.07871746
0.08029208
0.08112431
0.08037948
0.06849367
0.09087198
0.08493805
0.08213678
0.08034259
0.07832618
0.07338942
0.05216564
0.04072621
0.03366518
0.0288982
0.02556497
0.02327064
0.02180588
0.02098828
0.02055526
0.0201517
0.01945552
0.01839055
0.01772296
0.01855843
0.02208629
0.02946701
0.04316587
0.06984912
0.07618801
0.07871049
0.08014502
0.08090251
0.08014199
0.06826196
0.09077993
0.08482271
0.08204423
0.08031256
0.07843931
0.07387349
0.05345529
0.04181469
0.03444098
0.0294401
0.02594643
0.02355217
0.02204504
0.021243
0.02087724
0.02057819
0.02001414
0.01912595
0.01866782
0.01971503
0.0233629
0.03070517
0.04417147
0.07036011
0.07630747
0.07861277
0.07990166
0.08056466
0.07977318
0.06789285
0.09062728
0.08463643
0.08189165
0.08024139
0.07857375
0.07469368
0.05698435
0.04400759
0.03569084
0.03019112
0.02641342
0.02385517
0.02227246
0.02147116
0.02116831
0.0209749
0.02054796
0.019848
0.01961443
0.0208822
0.02464774
0.03193891
0.04513896
0.07074674
0.07637766
0.0784704
0.07958998
0.08011556
0.07923922
0.06733263
0.09039868
0.08438966
0.08171943
0.08018813
0.07876017
0.07566934
0.06176377
0.04679237
0.0373454
0.03118087
0.02699068
0.02418647
0.02248383
0.02166378
0.02141741
0.02132838
0.02104009
0.02053375
0.02053693
0.02205099
0.02599271
0.03332248
0.04630123
0.07118004
0.07654197
0.07841873
0.07933286
0.07964216
0.07852359
0.06652435
0.09013454
0.08423306
0.08175813
0.08042964
0.0792885
0.07706362
0.06906413
0.05101186
0.03983974
0.03257252
0.02772995
0.02456024
0.02268317
0.02182188
0.02162189
0.02162988
0.02147443
0.02115847
0.02140737
0.02321797
0.02748872
0.03515299
0.04822329
0.07210986
0.07720417
0.0788527
0.0795259
0.07951943
0.07789169
0.06536751
0.09017653
0.08488816
0.08290965
0.08194858
0.08120592
0.07993658
0.0760776
0.0611339
0.04443092
0.0346151
0.0286612
0.02497805
0.02287741
0.02195288
0.02177939
0.02186136
0.02181851
0.02168008
0.02217923
0.02435605
0.02923176
0.0379904
0.05265725
0.07490035
0.07953751
0.08088426
0.08131274
0.08098871
0.07859088
0.06396648
0.09241672
0.08934994
0.08845492
0.08808933
0.08783751
0.08738079
0.08580514
0.07951406
0.05007765
0.03667004
0.0295039
0.02534717
0.02303912
0.02201274
0.02178452
0.02184977
0.02185849
0.02189215
0.02267483
0.02527552
0.03101056
0.04234644
0.0668815
0.08411288
0.08711715
0.08781393
0.08802542
0.08783303
0.08605256
0.07249636
0.09017748
0.08488968
0.08291114
0.08194674
0.08118686
0.07982755
0.07538429
0.05751554
0.04330356
0.03422487
0.02847321
0.02485038
0.02272571
0.02168668
0.02131333
0.02116859
0.02100397
0.0209853
0.02186405
0.0246953
0.03070961
0.04196527
0.06418334
0.0766633
0.0799499
0.08103056
0.08139184
0.08104513
0.07863673
0.06399388
0.08595175
0.07604684
0.07140981
0.06880703
0.06673658
0.0640199
0.05900799
0.04945364
0.0397823
0.03269291
0.02777987
0.02452869
0.02257933
0.02162283
0.02127754
0.0211152
0.02086757
0.02065601
0.02123585
0.02358052
0.0285242
0.03675305
0.0483733
0.05869856
0.06348985
0.06549753
0.06592147
0.06443599
0.05839812
0.03666754
0.08531724
0.0738172
0.06780394
0.0641573
0.0612121
0.05766028
0.05194378
0.04395653
0.03674473
0.03112914
0.02701043
0.02416844
0.02240301
0.02148379
0.02107595
0.02079064
0.0203835
0.01997342
0.02030307
0.02222953
0.02632505
0.03283777
0.04165774
0.05132072
0.05648175
0.05888152
0.05950984
0.05811189
0.05250177
0.03372226
0.08545469
0.07353867
0.06691845
0.06267976
0.05915016
0.05500084
0.04873988
0.04112314
0.03482952
0.02997887
0.0263752
0.02383972
0.02221913
0.0213145
0.02081892
0.0203791
0.0197808
0.01915288
0.0192467
0.02086818
0.0245027
0.03033607
0.03845817
0.04819361
0.05369576
0.05648941
0.05757742
0.0568573
0.05248199
0.03550506
0.08567891
0.07372027
0.06685772
0.06229457
0.05836356
0.05370561
0.04663697
0.03936738
0.03356802
0.02915134
0.02586981
0.02354187
0.02201914
0.02110638
0.02050705
0.01989513
0.01908555
0.01822746
0.01810387
0.01951874
0.02295195
0.02860553
0.03669975
0.04678315
0.05272303
0.05595546
0.05753484
0.05743838
0.05390418
0.03735335
0.08584776
0.07392914
0.0669669
0.06221337
0.05799012
0.05290678
0.04504175
0.03811273
0.03267186
0.02853274
0.02545632
0.02326289
0.02179794
0.02085663
0.0201406
0.01934377
0.01830866
0.01721745
0.01689811
0.01817544
0.02154864
0.02723014
0.03549848
0.04598337
0.05240424
0.05606422
0.05805369
0.05838031
0.05527741
0.03866344
0.08595177
0.07406975
0.06705222
0.0621652
0.05771859
0.05235963
0.04421174
0.03733467
0.03204354
0.02805684
0.02510626
0.02299735
0.02156057
0.02057414
0.01972987
0.01873734
0.01746668
0.0161499
0.01565939
0.01684196
0.02021736
0.02599349
0.03446618
0.04528333
0.05220713
0.05626284
0.05857856
0.05918102
0.05629304
0.03952015
0.08600801
0.07414192
0.06707428
0.06205641
0.05735708
0.05166073
0.04346713
0.03668761
0.0315259
0.02765695
0.02479841
0.02274688
0.02131944
0.02027554
0.0192928
0.0180955
0.01658411
0.01506161
0.01442783
0.01553641
0.01892135
0.02478404
0.03342826
0.04449976
0.05191704
0.05634192
0.05892902
0.05972538
0.05695651
0.04004903
0.08603385
0.07416577
0.06704198
0.06186777
0.05678946
0.05022966
0.04248474
0.0360208
0.03104885
0.02730218
0.02452416
0.0225166
0.02108804
0.01997945
0.0188517
0.01744541
0.01569735
0.01400283
0.01325541
0.01429017
0.0176472
0.02353173
0.03227821
0.04360767
0.05144739
0.05623901
0.05907439
0.06002482
0.057335
0.04034589
0.08604193
0.07416219
0.06698891
0.06169872
0.05640861
0.04965194
0.04182952
0.03548755
0.03064218
0.02699349
0.0242832
0.02231152
0.02087751
0.01970352
0.01843274
0.01682542
0.01486202
0.01304085
0.01220542
0.01314679
0.01639993
0.02217378
0.03084798
0.04232495
0.05070198
0.05593767
0.0590355
0.06012536
0.05749873
0.04047783
0.0860408
0.07414493
0.06692628
0.0615342
0.05605501
0.04893265
0.04119751
0.03500916
0.03028715
0.02672791
0.02407751
0.02213647
0.02069658
0.01946435
0.01806848
0.01629151
0.0141581
0.01225595
0.01134463
0.01215972
0.01521977
0.02070319
0.02897236
0.04023464
0.04956245
0.05544799
0.05885465
0.06008052
0.05750928
0.04049415
0.0860358
0.07412332
0.06686486
0.06138503
0.05574149
0.04829406
0.04064278
0.03459817
0.02998947
0.02650923
0.02390955
0.02199363
0.02054996
0.01927619
0.01779525
0.01590997
0.01367248
0.01172005
0.01072494
0.01137986
0.01420086
0.01931549
0.02694023
0.03732402
0.04820089
0.05487529
0.05859814
0.05994663
0.05742228
0.04043562
0.08603022
0.07410398
0.06681622
0.06127669
0.05550317
0.04760146
0.04021014
0.03429236
0.02976614
0.02634371
0.02378092
0.02188307
0.02043945
0.01914853
0.01763855
0.01572659
0.01346381
0.01147598
0.01037608
0.0108428
0.01342829
0.01824954
0.02540382
0.03518684
0.04708499
0.05436699
0.05833448
0.0597772
0.05728875
0.04033823
0.08602609
0.07409053
0.06678362
0.06120879
0.05539188
0.04749291
0.04001598
0.03410628
0.02962129
0.02623423
0.02369333
0.02180585
0.02036709
0.01908712
0.01761086
0.01576076
0.01355498
0.01153879
0.01031114
0.01056714
0.01293179
0.01756925
0.02455311
0.03422422
0.04639518
0.05399842
0.05811412
0.05962031
0.05715704
0.04023933
0.0860245
0.07408498
0.06676874
0.06117454
0.05534062
0.04752497
0.03992887
0.03401578
0.02955368
0.02618312
0.02364959
0.02176527
0.02033663
0.0190954
0.01771398
0.01601058
0.01393893
0.01189965
0.010526
0.01055389
0.01269984
0.01719812
0.02411166
0.03376811
0.04598536
0.05377041
0.05797121
0.05951662
0.05706997
0.04017434
0.08602583
0.07408847
0.06677604
0.06118832
0.05534959
0.04741626
0.03993673
0.0340434
0.02957494
0.02619528
0.0236533
0.02176558
0.02035152
0.01916892
0.01792069
0.01641105
0.01452734
0.01249813
0.01098759
0.01078899
0.0127207
0.01709572
0.02396153
0.03361248
0.04584213
0.05369257
0.05792832
0.05949197
0.05705482
0.04016645
0.08602993
0.07410059
0.0668035
0.06124318
0.0554306
0.04744352
0.04007276
0.03418481
0.02968295
0.02627065
0.02370522
0.02180755
0.02040914
0.01929264
0.0181872
0.01687468
0.01518364
0.0131977
0.01160389
0.01123224
0.01298365
0.0172522
0.02407471
0.0337133
0.04595566
0.05376456
0.05798738
0.05954798
0.05711253
0.04021589
0.08603621
0.07412007
0.06684992
0.06134404
0.05561889
0.04776384
0.04040265
0.0344505
0.02987609
0.02640703
0.02380403
0.02188981
0.02050528
0.01945276
0.01847906
0.01734278
0.01582964
0.01391608
0.01229354
0.01181948
0.01345371
0.01765153
0.02444204
0.03405915
0.0462977
0.05396517
0.05812657
0.05966085
0.05721706
0.04029966
0.08604345
0.07414427
0.06691083
0.06148528
0.055917
0.04841751
0.04093113
0.03482974
0.03014455
0.02659884
0.02394689
0.02201009
0.02063621
0.01964194
0.01878415
0.01779985
0.01644395
0.01462248
0.01302267
0.01252221
0.01411735
0.01830372
0.02510637
0.03470553
0.04681999
0.05426468
0.05831067
0.05979169
0.05732717
0.04038366
0.08604957
0.07416898
0.06697906
0.06165069
0.05629528
0.04943741
0.04161042
0.03529344
0.03047385
0.02683892
0.02412995
0.02216566
0.02079902
0.01985702
0.01910124
0.01824936
0.01703314
0.01531695
0.0137828
0.01332892
0.01497826
0.01926642
0.02624479
0.03595742
0.04760246
0.0546522
0.05850186
0.05989568
0.05739619
0.04043201
0.08605128
0.07418788
0.06704521
0.06182048
0.05665414
0.05010621
0.04223958
0.0357898
0.03084819
0.02712079
0.02434948
0.02235347
0.02099073
0.02009603
0.01943215
0.01869942
0.0176111
0.01601048
0.01457694
0.01423479
0.01604049
0.02061351
0.02816393
0.03858369
0.04886816
0.05513189
0.05865985
0.05992447
0.0573747
0.04040924
0.08604317
0.074192
0.06710297
0.06201462
0.05713849
0.05094688
0.04302655
0.03637725
0.03127933
0.02744394
0.02460222
0.02256941
0.02120685
0.02035528
0.01977667
0.01915552
0.01818951
0.01671563
0.01541364
0.01523578
0.01726295
0.02218701
0.03037558
0.04162232
0.05018705
0.05556602
0.05871921
0.05982324
0.05720783
0.04027486
0.08601682
0.07416629
0.06712796
0.06217202
0.05759365
0.05204745
0.04384649
0.03699138
0.0317466
0.02780331
0.02488572
0.02280938
0.02144114
0.02062789
0.02012996
0.01961716
0.01877344
0.01744039
0.01629919
0.01632068
0.01856439
0.02369283
0.03203929
0.04318067
0.05097616
0.05578171
0.05860721
0.05953346
0.05683298
0.03998008
0.08595963
0.07409104
0.06709652
0.06225219
0.05787882
0.05259178
0.04448268
0.03759052
0.03225094
0.0282055
0.02520199
0.02306905
0.02168434
0.02090237
0.02048125
0.02007638
0.01935868
0.01818223
0.01722814
0.01747039
0.01990424
0.02511235
0.03337276
0.04417517
0.05143217
0.05578363
0.05829119
0.05900445
0.05617823
0.03945765
0.08585415
0.0739466
0.06700282
0.06228237
0.05811355
0.05309293
0.04528184
0.03837024
0.03288961
0.02869256
0.02556284
0.02334382
0.02192355
0.0211627
0.02081469
0.02051885
0.01993265
0.01892774
0.01818321
0.01866234
0.02127213
0.02650432
0.03459444
0.04499834
0.05174145
0.05564993
0.05780009
0.05822205
0.05517463
0.03861064
0.08568344
0.07373353
0.06688657
0.06235381
0.05847889
0.05388712
0.04678681
0.03965513
0.03382369
0.02933592
0.02599211
0.02363309
0.02214686
0.02139297
0.02111379
0.02092807
0.02047821
0.0196564
0.01914017
0.019877
0.02268415
0.02796713
0.03591134
0.04592734
0.05215409
0.05559853
0.05731413
0.05729938
0.05381435
0.03731205
0.08545733
0.07354776
0.0669405
0.06272973
0.05925879
0.05519369
0.04892785
0.04148038
0.03513389
0.03019395
0.02651639
0.02394221
0.02234929
0.02158422
0.0213676
0.02129052
0.02097822
0.02034521
0.02007262
0.02110118
0.02418364
0.0296606
0.03764312
0.04741734
0.05319443
0.0561812
0.05738785
0.05673751
0.05240551
0.03547499
0.0853183
0.07382258
0.06781933
0.06419553
0.06130056
0.05785528
0.05239359
0.04445108
0.03712678
0.03138376
0.02717238
0.02428161
0.0225352
0.02173889
0.02157497
0.02159886
0.02141814
0.02097134
0.02095274
0.0223224
0.02583205
0.03183281
0.04037673
0.05043081
0.05599266
0.05861104
0.05935164
0.05801288
0.05243876
0.03370182
0.0859517
0.07604897
0.07141816
0.06883209
0.06680718
0.06421082
0.05948097
0.05040607
0.04038201
0.0330158
0.0279649
0.02465087
0.0227133
0.02186664
0.02173618
0.02183825
0.02176927
0.02149645
0.02173432
0.02349588
0.02764207
0.0347542
0.04515094
0.05735488
0.06296949
0.06527359
0.06580689
0.06436726
0.05835425
0.03665571
0.09017668
0.08488867
0.08291087
0.0819514
0.08121534
0.0799704
0.07609139
0.06122378
0.04448583
0.03464727
0.0286776
0.02497882
0.02286182
0.02192372
0.0217453
0.02183565
0.02181724
0.02171117
0.02223386
0.02441436
0.02927906
0.03803078
0.05271472
0.07498729
0.07960284
0.08093255
0.08135125
0.08102208
0.07862304
0.06399226
0.09013494
0.08423358
0.08175821
0.08042554
0.07926781
0.07687539
0.06562665
0.05001047
0.03940785
0.03236143
0.02760411
0.02444861
0.02251354
0.02150703
0.0210828
0.02085577
0.02059965
0.02044464
0.02109495
0.02348766
0.02860248
0.03805857
0.05802011
0.07356691
0.0776562
0.0790786
0.07967452
0.07963194
0.07798025
0.06541281
0.08531732
0.07381847
0.0678085
0.06416926
0.06123942
0.05771203
0.05202516
0.04403871
0.03682545
0.03118909
0.02704433
0.02417365
0.02237897
0.02143813
0.02103058
0.02077848
0.02044086
0.0201002
0.02045581
0.02238167
0.02653516
0.03328894
0.04263598
0.051731
0.05670588
0.05903553
0.05963751
0.05823
0.05261609
0.03380209
0.08437409
0.07074378
0.06279726
0.05770962
0.05377815
0.04989515
0.04526034
0.039742
0.03442523
0.02992596
0.02641323
0.02387233
0.02221848
0.02128683
0.02079541
0.02040662
0.01990921
0.01938147
0.0194981
0.02101389
0.02434181
0.02942923
0.03575292
0.0419783
0.04629036
0.04852076
0.04882862
0.04668046
0.04008425
0.02322342
0.0843887
0.07012615
0.061285
0.05538315
0.05083128
0.04663912
0.04213285
0.03732252
0.03281384
0.02895583
0.02587653
0.02359159
0.02204917
0.02110719
0.02050814
0.01995264
0.01926585
0.01853254
0.01841752
0.01960424
0.02240227
0.0266571
0.03189009
0.03720932
0.04122997
0.04348713
0.04393709
0.04207631
0.03624656
0.02152765
0.08456609
0.07019301
0.0609884
0.05465726
0.04970346
0.0452219
0.04057094
0.03595028
0.03177861
0.02825509
0.02543977
0.02332646
0.02185653
0.02088552
0.02016454
0.01942558
0.01853025
0.0175786
0.01724462
0.01818468
0.02068868
0.02460129
0.02952213
0.03472559
0.0389069
0.04149658
0.04242781
0.04125913
0.03642818
0.02256411
0.08471529
0.07036619
0.06102
0.05446271
0.0492443
0.04453494
0.03968965
0.03510784
0.03108502
0.02773639
0.02507456
0.02306642
0.02163367
0.02061591
0.01976062
0.01882476
0.01770627
0.01653271
0.01599935
0.01676032
0.01912389
0.02295585
0.02790524
0.03330963
0.03789107
0.04095692
0.04243143
0.0418894
0.03772625
0.02385797
0.08480898
0.07049442
0.0610829
0.0543922
0.04899836
0.04412234
0.03914847
0.03454943
0.03058655
0.02732914
0.02475589
0.02280877
0.02138671
0.02030691
0.01930472
0.01815876
0.0168058
0.01541842
0.01471244
0.01534391
0.0176511
0.02152121
0.02662864
0.03233795
0.03736764
0.04091356
0.04285829
0.04276575
0.03896867
0.02482103
0.08485803
0.07055974
0.0611018
0.05430992
0.04877853
0.04374822
0.0386963
0.03409565
0.03017827
0.02698378
0.0244693
0.02255871
0.02113023
0.01997613
0.01881397
0.01744414
0.0158497
0.01427154
0.01342725
0.0139611
0.01623955
0.02017316
0.02545422
0.03146253
0.03691227
0.04089462
0.04322282
0.04344349
0.0398476
0.02543229
0.0848779
0.07057782
0.06107524
0.05418963
0.04852267
0.0433054
0.03823564
0.03367623
0.0298167
0.02667936
0.02421125
0.02232495
0.02088066
0.01964428
0.01831083
0.01670582
0.01487269
0.0131445
0.01220127
0.01265111
0.0148828
0.01884074
0.02424716
0.03051125
0.03632948
0.04071371
0.04336787
0.04382264
0.04035436
0.0257694
0.08488096
0.07056849
0.06102528
0.05406462
0.04830091
0.04296841
0.0378574
0.03331819
0.02950327
0.02641325
0.02398347
0.02211548
0.0206522
0.01933194
0.01782387
0.01598418
0.01393567
0.0121129
0.01110627
0.01146635
0.01359983
0.0174965
0.02292551
0.02936312
0.03553334
0.04032034
0.04327911
0.04392804
0.04055765
0.02590564
0.08487559
0.07054599
0.06096573
0.05394113
0.04809714
0.04265542
0.03751953
0.03300532
0.02923287
0.02618545
0.023789
0.02193626
0.02045522
0.01905903
0.01739372
0.0153504
0.01313879
0.01127338
0.01021953
0.01046661
0.01243932
0.0161747
0.02148778
0.02796779
0.03450799
0.03974311
0.04300387
0.04382408
0.04053709
0.02589859
0.08486722
0.07052018
0.06090795
0.05382994
0.04791882
0.04238394
0.03723077
0.03274279
0.02900952
0.02599896
0.02362991
0.02178918
0.02029477
0.01884359
0.01707086
0.01489854
0.0125961
0.01071327
0.00960068
0.009702141
0.01146969
0.01499147
0.02011104
0.02651263
0.03336902
0.03908682
0.04262822
0.04359249
0.04037485
0.0257995
0.08485921
0.07049774
0.06086156
0.05374547
0.04778579
0.04217765
0.03701707
0.03254683
0.02884139
0.02585722
0.02350684
0.02167367
0.02017261
0.01869798
0.0168892
0.01468831
0.01237498
0.01047596
0.009276902
0.009201722
0.0107438
0.01405501
0.01900248
0.02531857
0.03233604
0.03847626
0.04223848
0.04331242
0.04014814
0.02565355
0.08485356
0.0704824
0.06083065
0.05369028
0.04770238
0.04206554
0.03688516
0.03242036
0.02873153
0.02576264
0.02342124
0.02159076
0.02009125
0.01862972
0.0168642
0.01474118
0.01249572
0.01057058
0.009253707
0.008977069
0.01028659
0.0134091
0.01824048
0.02452557
0.03162105
0.03800213
0.04190812
0.04305728
0.03993077
0.02550932
0.08485133
0.07047617
0.06081744
0.05366519
0.04766338
0.04201491
0.03682287
0.03236239
0.02868183
0.02571771
0.0233762
0.02154459
0.02005572
0.018644
0.01700141
0.01506161
0.01295619
0.01098903
0.009523817
0.009027409
0.01010452
0.01305802
0.01780303
0.02407281
0.03121654
0.03770625
0.04169544
0.04289142
0.03978953
0.02541543
0.08485294
0.0704801
0.06082448
0.05367677
0.04767889
0.04202922
0.03684483
0.03238323
0.02869735
0.02572577
0.02337611
0.02154144
0.0200716
0.01873567
0.01726526
0.01556609
0.01365595
0.01166985
0.01005183
0.009336014
0.01019547
0.0130067
0.01768912
0.02394486
0.03110077
0.03761972
0.04164016
0.04285719
0.03976858
0.02540612
0.08485827
0.07049384
0.06085078
0.0537222
0.04774546
0.04211418
0.03694707
0.03248008
0.02877734
0.02578728
0.02342245
0.02158302
0.02013608
0.01888407
0.01759277
0.01612948
0.01441592
0.0124488
0.01073377
0.009854025
0.01054476
0.01325308
0.01789597
0.02413441
0.03126948
0.03774573
0.04174574
0.04295698
0.03986923
0.02548161
0.08486669
0.07051608
0.06089474
0.05380052
0.04786485
0.04228527
0.03713459
0.03265127
0.02891926
0.02590041
0.02351406
0.0216677
0.02024363
0.01907078
0.01793681
0.01667328
0.0151372
0.01322628
0.01147293
0.01050089
0.01109645
0.01375506
0.01838127
0.0245954
0.03167652
0.03804319
0.04197365
0.04315059
0.04004825
0.02560719
0.08487692
0.07054416
0.06095224
0.05390603
0.04803078
0.04253891
0.03739943
0.03288812
0.02911672
0.02606126
0.02364825
0.02179242
0.020389
0.01928673
0.0182855
0.01718662
0.01580348
0.01397299
0.01223522
0.01124436
0.01182214
0.01448619
0.01911982
0.02530661
0.03231957
0.03846451
0.04226714
0.04337623
0.04024089
0.02573591
0.08488683
0.07057377
0.06101705
0.05402945
0.04823036
0.04285532
0.03772273
0.03317818
0.02936214
0.02626508
0.02382158
0.02195381
0.02056824
0.01952836
0.01864021
0.01768038
0.01643096
0.01469641
0.01301727
0.01207404
0.01271012
0.01544231
0.02012922
0.0263042
0.03318751
0.03896742
0.04256578
0.04356522
0.04037621
0.02582136
0.08489302
0.07059837
0.06108064
0.05415996
0.0484454
0.0431768
0.0380748
0.03350767
0.02964829
0.02650729
0.0240303
0.0221481
0.02077759
0.01979377
0.01900538
0.0181685
0.01704128
0.01541418
0.01382806
0.01298975
0.01375432
0.01662539
0.02144558
0.02765308
0.03419659
0.03950168
0.04280632
0.04364529
0.04038025
0.02581986
0.08489008
0.07060835
0.06113333
0.05429417
0.04869047
0.04356026
0.03848698
0.03388667
0.02997582
0.02678529
0.02427048
0.02237035
0.02101168
0.02007917
0.01938234
0.01865984
0.01765018
0.01614222
0.01467918
0.0139942
0.01493866
0.01797992
0.02293199
0.02912096
0.03518469
0.03996106
0.04290761
0.04353803
0.04017301
0.02568117
0.08486957
0.07058855
0.06115577
0.05440372
0.04892214
0.04394978
0.03891397
0.03429423
0.03033803
0.02709657
0.02453876
0.02261473
0.02126268
0.02037684
0.01976665
0.01915519
0.01826407
0.01688855
0.0155772
0.01508459
0.0162302
0.01940233
0.02435553
0.03034444
0.03595959
0.040236
0.04279992
0.04317309
0.03967263
0.02534736
0.08481925
0.07051995
0.06112974
0.05447105
0.04911672
0.0442794
0.03933013
0.03472977
0.03074217
0.02744631
0.02483429
0.02287414
0.02151911
0.02067388
0.02014707
0.01964659
0.0188782
0.01764991
0.01651687
0.01624753
0.01760139
0.02086048
0.02571932
0.03140971
0.03656577
0.04034375
0.0424806
0.04251831
0.0388071
0.0247444
0.08472381
0.07038764
0.06105957
0.05452991
0.04935034
0.04467324
0.03985994
0.03528693
0.03124562
0.02786189
0.02516301
0.02314088
0.02176599
0.02095287
0.02050695
0.02011918
0.01947904
0.01841192
0.01748084
0.01746273
0.01904199
0.02238882
0.02714185
0.03251996
0.0372079
0.04046465
0.04209883
0.04166806
0.03758158
0.02379287
0.08457258
0.07021012
0.06102154
0.05471648
0.04980143
0.04536058
0.04075092
0.0361511
0.03196036
0.02839775
0.02554192
0.02341087
0.02198933
0.02119669
0.02082919
0.02055614
0.0200489
0.0191533
0.01844425
0.01870945
0.02056468
0.02408321
0.02884471
0.03402409
0.03831391
0.04106884
0.04213606
0.0410629
0.03630025
0.02251134
0.08439317
0.07013919
0.06131258
0.05543653
0.05092685
0.0467865
0.04234333
0.03756186
0.03302895
0.02912324
0.02599591
0.02368668
0.02218271
0.02139606
0.02110322
0.02094467
0.02057142
0.01985195
0.01938083
0.01997111
0.0222052
0.02610492
0.03119688
0.03653497
0.04069032
0.04310852
0.04368133
0.04190376
0.03613418
0.02148571
0.08437679
0.07075324
0.06281986
0.05775789
0.05387349
0.05006352
0.04553748
0.04005807
0.03469611
0.0301276
0.02655215
0.02397737
0.02235214
0.02155608
0.02133092
0.02128091
0.02103611
0.02048968
0.02026638
0.02123201
0.02400716
0.02867388
0.03479756
0.04120308
0.04575865
0.04818252
0.04861212
0.04653707
0.03999063
0.02319108
0.08531847
0.07382403
0.06782419
0.06420889
0.06133696
0.05794085
0.05251574
0.04459034
0.03721704
0.03144089
0.02720382
0.02428692
0.02251246
0.02169137
0.0215166
0.021554
0.02141906
0.02103451
0.02106117
0.02244455
0.02594578
0.0319469
0.04052598
0.05067603
0.05618188
0.05876301
0.05948196
0.05813249
0.05255317