/*--------------------------------*- C++ -*----------------------------------*\
| =========                 |                                                 |
| \\      /  F ield         | OpenFOAM: The Open Source CFD Toolbox           |
|  \\    /   O peration     | Version:  2506                                  |
|   \\  /    A nd           | Website:  www.openfoam.com                      |
|    \\/     M anipulation  |                                                 |
\*---------------------------------------------------------------------------*/
FoamFile
{
    version     2.0;
    format      ascii;
    arch        "LSB;label=32;scalar=64";
    class       volScalarField;
    location    "150/airRegion";
    object      nut;
}
// * * * * * * * * * * * * * * * * * * * * * * * * * * * * * * * * * * * * * //

dimensions      [0 2 -1 0 0 0 0];

internalField   nonuniform List<scalar> 
85779
(
0.09218087
0.0925502
0.0923436
0.09209534
0.09179452
0.09120343
0.08960161
0.08472698
0.07187049
0.06744772
0.0666695
0.06814346
0.0715122
0.07632094
0.08142652
0.08492287
0.08416389
0.07711488
0.06818625
0.0626553
0.06258781
0.06866405
0.08425328
0.08942742
0.0908506
0.09114832
0.09073992
0.08818773
0.07420992
0.02015491
0.0922862
0.09277898
0.09238979
0.09182234
0.09109532
0.08976603
0.08662691
0.08000888
0.07242924
0.06933521
0.06851524
0.0696283
0.07256576
0.07692101
0.08160597
0.08482124
0.08404691
0.0772204
0.06851567
0.06321415
0.06314584
0.06785715
0.07696265
0.08579648
0.08865384
0.0892374
0.0884382
0.08457226
0.06887599
0.01893235
0.09210895
0.09233158
0.0917191
0.09092007
0.08989543
0.0879248
0.08308008
0.0769529
0.07284632
0.07068444
0.07008731
0.071048
0.07358418
0.07735908
0.08140215
0.08411528
0.08320161
0.07655252
0.06796614
0.06266249
0.06232255
0.06597015
0.07280047
0.08296875
0.08651057
0.08725878
0.08651536
0.08294486
0.06862738
0.01913904
0.09206305
0.09209406
0.09130572
0.09034002
0.08910369
0.08676976
0.08143599
0.0749143
0.07221428
0.07094177
0.07077536
0.07181162
0.07411892
0.0774012
0.08079617
0.08292808
0.08176652
0.07513626
0.06640199
0.06081018
0.06009001
0.06319051
0.06965066
0.08138919
0.08525206
0.08613003
0.08559641
0.08256246
0.06940948
0.01930837
0.092078
0.09202246
0.09113006
0.09005166
0.08864173
0.08578368
0.07885394
0.07375027
0.0716478
0.07082138
0.07092517
0.0720357
0.07418365
0.07704464
0.07981047
0.0813113
0.07981189
0.07308523
0.06407085
0.05819293
0.05738435
0.06059566
0.06756228
0.08056422
0.08462767
0.08562799
0.0852982
0.08267133
0.07020757
0.01942618
0.09210336
0.09201303
0.09106229
0.08990572
0.08833932
0.08498212
0.07731983
0.07331989
0.07138733
0.07063631
0.07081978
0.07193951
0.07393116
0.07638909
0.07851081
0.07931895
0.07741134
0.07054822
0.06125599
0.05524304
0.05467736
0.0583995
0.06610617
0.08008069
0.08431966
0.08543558
0.08526055
0.08287067
0.07060703
0.01950783
0.09212281
0.09201656
0.09102915
0.0898135
0.08812873
0.08448908
0.07621348
0.0725221
0.070853
0.07027766
0.0705647
0.07168882
0.07351518
0.07555002
0.07697586
0.07701508
0.0746526
0.06767309
0.05817276
0.05217993
0.05206038
0.05644831
0.06491529
0.07972067
0.08413743
0.0853625
0.08530164
0.08305398
0.07086512
0.01956163
0.09213411
0.09201671
0.09099817
0.08971406
0.08784757
0.08377039
0.07547741
0.07201556
0.07052093
0.07004668
0.07037187
0.07144739
0.07306466
0.07462687
0.07528524
0.07448276
0.07165602
0.06462303
0.05500478
0.04913002
0.04951328
0.054565
0.06375438
0.07936003
0.08397684
0.08531374
0.08534293
0.08318587
0.07103274
0.01959546
0.09213908
0.09201079
0.09095883
0.0895689
0.08727132
0.08192361
0.07546677
0.07212351
0.07056085
0.07002984
0.07030229
0.07127435
0.07264307
0.0736914
0.07352879
0.07184949
0.06860592
0.06161216
0.05196605
0.04623859
0.04704892
0.05262615
0.06242623
0.07884928
0.08375772
0.08523935
0.08535397
0.08326073
0.07112964
0.01961501
0.09214001
0.09200198
0.09092422
0.0894647
0.08705052
0.08185525
0.07479274
0.071842
0.07045945
0.06999297
0.07026173
0.07114584
0.07227054
0.07280929
0.07183547
0.06932284
0.06577509
0.05892127
0.04932902
0.04373124
0.0448066
0.05062654
0.06070304
0.07793229
0.08336981
0.08510131
0.08532388
0.08328457
0.07117261
0.01962428
0.09213877
0.09199176
0.09089101
0.08936252
0.08674799
0.08120766
0.07446122
0.07173939
0.07045015
0.0700176
0.07027177
0.07106981
0.0719742
0.07206582
0.07039297
0.06720085
0.06350021
0.05685131
0.04735824
0.04185721
0.04308161
0.04886877
0.05852948
0.07577472
0.08260299
0.08486417
0.08525236
0.08326825
0.07117687
0.01962634
0.09213666
0.09198177
0.0908614
0.08927379
0.08646814
0.08048692
0.07423449
0.07174975
0.07052184
0.07009203
0.07031583
0.07103606
0.07177242
0.07154771
0.06940425
0.06579153
0.06207396
0.05561438
0.04612736
0.04054018
0.0417998
0.04753556
0.05636338
0.0694513
0.08124275
0.08455053
0.08515792
0.08322742
0.07115648
0.01962362
0.09213455
0.09197364
0.09083901
0.08920157
0.08608233
0.07916752
0.07430152
0.07175174
0.07054272
0.07013211
0.0703445
0.07101944
0.07166937
0.0713089
0.06899668
0.06527932
0.06165725
0.05533413
0.0456595
0.03963605
0.04068864
0.04639682
0.0547661
0.06579718
0.08021445
0.08429581
0.08507103
0.08317888
0.07112439
0.01961833
0.09213304
0.09196822
0.09082546
0.08917537
0.08604109
0.07887028
0.07397204
0.07161876
0.07053042
0.07015072
0.07035562
0.0710151
0.07167073
0.07138005
0.06923707
0.06575742
0.06232985
0.05610506
0.04608919
0.03927774
0.03979368
0.04529767
0.05349352
0.06427004
0.07979097
0.0841571
0.08500884
0.08313618
0.07109262
0.01961275
0.09213245
0.0919658
0.090819
0.08916806
0.08609105
0.07891816
0.07378892
0.07161037
0.07057609
0.07018109
0.07036332
0.07103074
0.07178591
0.07178428
0.07017863
0.06730111
0.06414209
0.05796309
0.0475289
0.03969557
0.03944649
0.04466697
0.05281625
0.06368392
0.0796233
0.08408801
0.08497192
0.08310866
0.07107142
0.01960904
0.09213285
0.09196689
0.09082122
0.08916404
0.08601016
0.07878453
0.07394111
0.07164904
0.07057217
0.07016506
0.07034493
0.07105597
0.07199389
0.07245818
0.0716788
0.06969619
0.06691556
0.06076071
0.04990413
0.04093752
0.03974486
0.04457073
0.05261882
0.06351119
0.07956975
0.08406496
0.08496051
0.083102
0.0710672
0.01960859
0.09213425
0.09197136
0.09083172
0.08917991
0.08599583
0.07886285
0.07421971
0.07175428
0.07056062
0.0701166
0.07030135
0.07108108
0.07224744
0.07325497
0.07341166
0.07244861
0.07015563
0.06402328
0.05282175
0.0428443
0.04066431
0.04499211
0.05282836
0.06361214
0.0795955
0.0840806
0.08497352
0.08311628
0.07108019
0.01961142
0.09213645
0.09197894
0.09085137
0.08923074
0.08613057
0.07919228
0.07443527
0.07178787
0.07049343
0.07002514
0.07023243
0.0711002
0.07250764
0.07404917
0.07509856
0.07512557
0.07339398
0.06733075
0.05587247
0.04511694
0.04207281
0.04588668
0.053439
0.06399683
0.07970158
0.08413232
0.08500673
0.08314556
0.07110439
0.01961614
0.09213907
0.09198888
0.09087951
0.08931861
0.08643652
0.0798493
0.07457038
0.07175222
0.07040612
0.06992998
0.07016516
0.07112369
0.07276036
0.07478264
0.07661324
0.07752084
0.07635542
0.07039829
0.05877508
0.04752048
0.04383558
0.04721698
0.05453518
0.0648616
0.07993516
0.08422608
0.08505495
0.08318023
0.07112992
0.01962065
0.09214154
0.09200007
0.09091309
0.08943146
0.08694982
0.0815664
0.07456706
0.0716842
0.07033583
0.06985888
0.07011991
0.07116453
0.07301039
0.07545122
0.07794216
0.07959831
0.07894592
0.07308045
0.06132976
0.0497909
0.04568559
0.04878663
0.05618223
0.06681261
0.08048235
0.084393
0.08511597
0.08320964
0.07114528
0.01962276
0.09214295
0.09201088
0.09094724
0.0895321
0.08725356
0.08233719
0.07508427
0.07190645
0.0703995
0.06985687
0.07011894
0.07123769
0.07327214
0.07607666
0.07912285
0.0814015
0.08117395
0.07533217
0.06342181
0.05167101
0.0471961
0.0500187
0.05795423
0.07089443
0.08169726
0.08468013
0.08518773
0.08322223
0.07113804
0.01962027
0.09214202
0.09202014
0.0909847
0.08965018
0.08752964
0.08236396
0.07547338
0.07196427
0.07038075
0.06984162
0.07014047
0.07134521
0.07355851
0.07668523
0.08020332
0.08299521
0.08309309
0.07719637
0.06513894
0.05334188
0.0487209
0.05149254
0.06022026
0.0769847
0.08305457
0.08497864
0.08524368
0.08320196
0.07109437
0.01961078
0.0921369
0.09202507
0.09101856
0.08976678
0.08798815
0.08407503
0.07575488
0.07211933
0.07049542
0.06993932
0.07025138
0.07152093
0.07388876
0.07729808
0.08122074
0.08443459
0.08476491
0.07876856
0.06669943
0.05519045
0.0507593
0.05356945
0.06230687
0.07858978
0.08361526
0.08514071
0.08525363
0.08313228
0.07099864
0.01959131
0.09212529
0.09202349
0.09104424
0.08984671
0.08820353
0.0846362
0.07647591
0.07273687
0.07095099
0.07026724
0.07050814
0.07178243
0.07426131
0.07791274
0.08218595
0.0857476
0.08623039
0.08012467
0.06821614
0.05724174
0.05308087
0.05570881
0.0639197
0.0792634
0.08390016
0.08523184
0.0852259
0.08300522
0.07083346
0.01955789
0.09210541
0.09201868
0.09107419
0.08993084
0.08839228
0.08507929
0.07751957
0.07355178
0.07150283
0.07064389
0.07078123
0.07203325
0.07460278
0.0784781
0.08307158
0.08692745
0.08749747
0.08129338
0.06969877
0.05941016
0.05553582
0.057855
0.06536254
0.07975894
0.08413856
0.08532724
0.08519357
0.08282595
0.07057798
0.01950475
0.09207956
0.09202706
0.0911403
0.09007444
0.08868493
0.0857955
0.07884326
0.074081
0.07173626
0.07077707
0.07085329
0.07210142
0.07477875
0.07889693
0.0838146
0.08793629
0.08854245
0.08225282
0.07107894
0.06157609
0.05806328
0.06011965
0.06691425
0.08029744
0.08447254
0.08553196
0.0852371
0.08262928
0.07017471
0.01942396
0.09206412
0.09209774
0.0913147
0.09036174
0.08915169
0.0867633
0.08085881
0.07528202
0.07231349
0.07090132
0.07070082
0.07185977
0.07464847
0.07905468
0.08433411
0.08871802
0.08931961
0.08293587
0.0722139
0.06355083
0.06056557
0.06261834
0.06887088
0.08108921
0.08509551
0.08603864
0.08553958
0.0825237
0.06937925
0.01930696
0.09210961
0.09233439
0.09172652
0.09093869
0.08994182
0.08810299
0.08383852
0.07720895
0.07297768
0.07067987
0.07002873
0.07108734
0.07405973
0.07884952
0.08455858
0.08921692
0.08977756
0.08325013
0.07289577
0.06501034
0.06271616
0.0652364
0.07151785
0.08246315
0.08631074
0.08716436
0.08646285
0.08291087
0.06860337
0.01913831
0.09228656
0.09278078
0.09239491
0.09183603
0.09113191
0.08987026
0.0868664
0.07977442
0.07268582
0.06934785
0.06846861
0.06966643
0.07300425
0.07828912
0.0844699
0.08939185
0.08987497
0.08312852
0.07293784
0.06554753
0.06383608
0.06721974
0.07479148
0.08483263
0.08837357
0.08914131
0.08839518
0.08454674
0.06885871
0.01893211
0.09218093
0.09255071
0.0923453
0.09210058
0.09181084
0.09125654
0.08976495
0.08508599
0.07227878
0.06764862
0.06673705
0.0682312
0.0719498
0.07762185
0.08411214
0.08916794
0.0895406
0.08257899
0.07239951
0.06511477
0.06342418
0.06737923
0.07919898
0.08826586
0.09061317
0.09109143
0.09072105
0.08817802
0.07420319
0.02015491
0.09228624
0.09277888
0.09238962
0.09182271
0.09109725
0.08975597
0.08639767
0.07915972
0.07281139
0.06945406
0.06850651
0.06955887
0.07246235
0.0768303
0.08160324
0.08497751
0.08439365
0.07764744
0.06878516
0.06315957
0.06286473
0.06772816
0.07880459
0.08616717
0.08869504
0.08923722
0.08843796
0.08458334
0.06890604
0.01893587
0.09172221
0.09308796
0.09338379
0.09271349
0.09135021
0.08903555
0.08497492
0.0795104
0.07454536
0.07146027
0.07028167
0.07095805
0.07344205
0.07736738
0.0817242
0.08481628
0.08421901
0.07772086
0.06909611
0.0636941
0.06353362
0.0678063
0.07502605
0.08163347
0.08494995
0.08549004
0.08317779
0.0754517
0.0549098
0.01433323
0.09095969
0.09180071
0.09221158
0.09161672
0.09011561
0.08758018
0.08372816
0.07931336
0.07552057
0.07297111
0.07186279
0.07232194
0.07438211
0.07772345
0.08143743
0.08402287
0.08329199
0.07702717
0.06858906
0.06322248
0.06284805
0.06632616
0.07194414
0.07760615
0.0808205
0.08119692
0.07841451
0.07018378
0.05049489
0.01374592
0.09064347
0.09088941
0.09091007
0.09007213
0.08837273
0.08565738
0.08195672
0.07824629
0.07532134
0.07338133
0.07256821
0.07303737
0.07484071
0.07767939
0.0807366
0.08272975
0.08176027
0.07559395
0.06710698
0.06149059
0.06071879
0.06357743
0.06848742
0.07397521
0.07725158
0.07781008
0.07543759
0.06816208
0.05014885
0.01410486
0.09056326
0.09050282
0.09018443
0.08905636
0.08710944
0.08412138
0.08042905
0.07709538
0.07466973
0.07315423
0.07261352
0.07316343
0.07481221
0.07722752
0.07963981
0.08098067
0.07968254
0.0735065
0.06482238
0.05888114
0.05786913
0.0605831
0.06554091
0.07143998
0.07502564
0.07598926
0.07427903
0.06806353
0.05121005
0.0144676
0.09056113
0.09037508
0.0898584
0.08851827
0.08635581
0.08307726
0.07933758
0.07622051
0.07401266
0.07270969
0.07233466
0.07294109
0.07445554
0.07646489
0.07820296
0.07881473
0.07711723
0.0708941
0.06199032
0.05581273
0.05484565
0.05784831
0.06329228
0.06984012
0.07384736
0.07525084
0.0741163
0.06864527
0.05235781
0.01471953
0.09057355
0.09033575
0.08970808
0.08822706
0.08590366
0.08239496
0.07845915
0.07541554
0.07336088
0.07221245
0.07195207
0.07258053
0.07393746
0.07550447
0.07649172
0.07627771
0.07413914
0.06789911
0.05883535
0.05255559
0.05185975
0.05539651
0.06150328
0.06874649
0.07320159
0.07500102
0.074295
0.06929271
0.05326379
0.0148823
0.09058134
0.09031375
0.08961166
0.088021
0.08556064
0.08188346
0.07790289
0.07491377
0.07293904
0.07186289
0.07164383
0.07223522
0.07338202
0.07443811
0.0745708
0.07343481
0.07086198
0.06468892
0.05556027
0.04928244
0.04895495
0.05308759
0.05987865
0.0678103
0.07272327
0.07487421
0.07448645
0.06978165
0.05388101
0.01498233
0.09058169
0.09028815
0.08952385
0.0878308
0.08524484
0.0816516
0.07775416
0.07475986
0.07276898
0.07168548
0.07144854
0.07195722
0.07285015
0.07333412
0.072522
0.07040712
0.06747949
0.06149154
0.0523951
0.04616263
0.04616567
0.05079756
0.05816517
0.06673325
0.07218792
0.07468816
0.07456321
0.07006274
0.05424139
0.0150387
0.09057706
0.0902596
0.08944552
0.08766772
0.08494689
0.08118753
0.07736792
0.07449062
0.07258055
0.07154174
0.07130681
0.0717354
0.07236894
0.0722674
0.07049011
0.06743095
0.06430563
0.058616
0.04962251
0.04341811
0.04362156
0.04854974
0.05626316
0.0653382
0.07143647
0.07435564
0.07449264
0.07015336
0.05439777
0.01506431
0.09056985
0.09022997
0.08937402
0.0875234
0.0846594
0.0808375
0.07709166
0.07430131
0.07245685
0.07145583
0.07121978
0.07157288
0.07197204
0.07134915
0.06872276
0.06489358
0.06175281
0.05640539
0.04752209
0.04126934
0.04152742
0.04656017
0.054309
0.06352789
0.07038526
0.07385943
0.07429167
0.07009578
0.05440375
0.01506848
0.09056214
0.09020246
0.08931179
0.08740076
0.08441168
0.08053803
0.0768958
0.0741902
0.07239458
0.07141543
0.07117136
0.07146249
0.0716891
0.07070231
0.0675078
0.06321304
0.06017192
0.05511106
0.04623687
0.03972256
0.03982583
0.0448343
0.05246545
0.06142522
0.06915367
0.0732889
0.07402171
0.06994782
0.05431454
0.01505868
0.09055563
0.09018066
0.08926463
0.0873078
0.08420944
0.0803151
0.07672465
0.0740715
0.07232593
0.0713742
0.07113028
0.0713881
0.07153264
0.07039653
0.06700031
0.06259467
0.05971223
0.05485569
0.04584702
0.03876701
0.0384329
0.04329745
0.05085041
0.05965305
0.06812221
0.07278975
0.0737551
0.06976852
0.0541829
0.01504149
0.09055119
0.09016612
0.0892337
0.08725048
0.08410282
0.08012651
0.07655445
0.07397273
0.07227381
0.07133851
0.0710933
0.07134668
0.0715117
0.07046651
0.0672671
0.06312168
0.06042843
0.05570315
0.04646136
0.03855295
0.03750268
0.04207749
0.04958637
0.05849351
0.06746481
0.07243844
0.07354193
0.0696077
0.05405611
0.01502375
0.09054933
0.09015974
0.08921954
0.08722489
0.08406329
0.08005755
0.07650762
0.07396489
0.07227303
0.07132638
0.07107074
0.0713467
0.07164123
0.07095226
0.06840223
0.06492437
0.06240041
0.05767904
0.04813459
0.03923036
0.03725055
0.04142321
0.04887126
0.0578912
0.06710124
0.07223238
0.07340897
0.06950414
0.05397393
0.01501202
0.09055041
0.09016279
0.08922534
0.08723343
0.0840692
0.08008437
0.07653593
0.07397556
0.07227321
0.07131444
0.07105543
0.07138436
0.07190144
0.07178688
0.07025934
0.06779906
0.06549433
0.06065756
0.05075509
0.04079464
0.03774047
0.04139786
0.04869641
0.05771892
0.06699081
0.07216919
0.07337228
0.06948184
0.05396145
0.01501067
0.09055432
0.09017488
0.08925
0.08727697
0.08414467
0.08021738
0.07666514
0.07404041
0.07229084
0.07130645
0.0710473
0.07144775
0.07222961
0.07276934
0.07238169
0.07108329
0.06913431
0.06414026
0.05389411
0.04302805
0.03892299
0.04199142
0.0490329
0.05792233
0.06710987
0.07224211
0.0734312
0.06954141
0.05401913
0.01501971
0.09056071
0.09019527
0.089293
0.08735796
0.08430306
0.0804318
0.07682733
0.07411705
0.0723089
0.07129792
0.07104569
0.07152642
0.07257081
0.07372581
0.07438122
0.07418716
0.07272685
0.06765018
0.05710458
0.0455614
0.04060464
0.04311523
0.04983332
0.05847221
0.06743131
0.07243138
0.07356544
0.06965888
0.05412207
0.01503478
0.09056883
0.09022209
0.08935147
0.08747333
0.08454223
0.08071712
0.07700721
0.07421217
0.07234873
0.07131005
0.07106443
0.07162211
0.07290292
0.07458665
0.07611664
0.07688066
0.07595562
0.0708784
0.06010764
0.04815075
0.04262438
0.04468448
0.05108415
0.0594107
0.06794333
0.07271828
0.07374538
0.06979592
0.05423107
0.01504955
0.09057758
0.09025283
0.08942077
0.0876126
0.08483531
0.08101512
0.07719434
0.07433426
0.07242272
0.07135584
0.07111474
0.07174239
0.07322924
0.0753541
0.07759629
0.0791576
0.07873844
0.0736881
0.0627384
0.05058758
0.04477034
0.04653612
0.05274547
0.06088217
0.06873388
0.07310725
0.07394207
0.06990891
0.0543014
0.01505745
0.09058536
0.09028437
0.08949652
0.08776519
0.08513043
0.08143288
0.0775396
0.07456582
0.07256867
0.07145465
0.07120962
0.07189876
0.07356527
0.07605986
0.07888309
0.08109723
0.08110934
0.07605345
0.06492743
0.05271299
0.04677333
0.04832769
0.05450024
0.06283693
0.06988204
0.07359956
0.07412306
0.06995045
0.0542851
0.01505199
0.09059021
0.09031417
0.08957884
0.08793413
0.0854014
0.08176292
0.07776849
0.07472417
0.07269711
0.07157423
0.07134469
0.07209868
0.07392743
0.07673863
0.08004378
0.0827906
0.08314185
0.07802116
0.06674073
0.05461906
0.04874732
0.05020586
0.05639135
0.06490591
0.07107349
0.07407213
0.07422642
0.06986466
0.0541283
0.01502582
0.09058926
0.09033767
0.08966025
0.08810778
0.08569838
0.08207743
0.07805692
0.07499065
0.07293914
0.07179719
0.07156805
0.07236872
0.0743338
0.07741602
0.08112678
0.08430841
0.08490746
0.07967501
0.06834075
0.05656929
0.05101659
0.05247248
0.05846662
0.06655866
0.07194074
0.07439111
0.07419413
0.06959778
0.05377284
0.01496975
0.09058042
0.09035606
0.08974773
0.08829502
0.08601037
0.082565
0.07865827
0.07557657
0.07344573
0.072216
0.07192476
0.07272183
0.07478217
0.0780924
0.08214935
0.08568675
0.08645108
0.08108406
0.06983854
0.05864586
0.05353527
0.05491679
0.06046492
0.06787603
0.07261608
0.07461004
0.07404066
0.06912467
0.05316285
0.01487082
0.09056684
0.09039205
0.08989132
0.08857471
0.08644691
0.08323183
0.07953755
0.07640095
0.07412185
0.07273969
0.07233107
0.07308191
0.07520803
0.07872164
0.08308867
0.08692306
0.08778186
0.08227486
0.07125478
0.0608029
0.05620857
0.05749768
0.06252123
0.06920424
0.07337685
0.07491926
0.07389033
0.06849136
0.05226462
0.01470973
0.09056788
0.09051724
0.09021368
0.08910889
0.087197
0.08426761
0.08063323
0.07726274
0.07474879
0.07316218
0.07259928
0.07328571
0.07547995
0.07920883
0.0838843
0.08798173
0.08887643
0.08322459
0.07252207
0.06290962
0.0589343
0.06026599
0.06488951
0.07092334
0.07461816
0.07569464
0.07407336
0.06792084
0.05112227
0.01445982
0.09064708
0.09090164
0.09093658
0.09012307
0.08846302
0.08581241
0.08217736
0.07842661
0.07541044
0.07339409
0.07255155
0.0731405
0.07543323
0.07943291
0.08445506
0.08880794
0.08969009
0.08386748
0.07349248
0.06473441
0.0615029
0.06317274
0.06776785
0.0734394
0.07685781
0.07753597
0.07524829
0.06803058
0.05006885
0.01409909
0.09096237
0.09181057
0.09223422
0.09166271
0.09020495
0.08775349
0.0839634
0.07954948
0.07564694
0.07299875
0.07184381
0.07240249
0.07490616
0.07928902
0.08472935
0.08934744
0.09017481
0.08412134
0.07397231
0.06594018
0.06347851
0.06580624
0.07096573
0.07689914
0.08039444
0.08093842
0.07824776
0.07006984
0.05042577
0.01374192
0.09172386
0.09309446
0.09339972
0.09274934
0.09142956
0.08920787
0.08531186
0.07980184
0.07462827
0.07145143
0.07024083
0.07101194
0.07390887
0.07878734
0.08468813
0.0895593
0.09029409
0.08394261
0.07383674
0.0662337
0.06430794
0.06733095
0.07356762
0.08059911
0.08448776
0.08527066
0.08305622
0.07537254
0.05486031
0.01433106
0.09228661
0.09278069
0.0923948
0.09183701
0.09113923
0.08989386
0.08686793
0.07982732
0.07271817
0.06935963
0.06844935
0.06960547
0.07290074
0.07816293
0.08436412
0.08936085
0.0899741
0.08335893
0.07321971
0.06577418
0.06396149
0.06726847
0.07479978
0.084812
0.08835778
0.0891315
0.08839336
0.08455752
0.06888845
0.01893566
0.09210909
0.09233202
0.09172049
0.09092489
0.08991032
0.08794916
0.08300945
0.0769895
0.07293207
0.07067835
0.06999005
0.07085993
0.07333345
0.07715062
0.08142121
0.08454886
0.08415323
0.07781022
0.06900183
0.06305235
0.06210012
0.06558145
0.07478167
0.08355042
0.08660444
0.08728401
0.08653901
0.08298551
0.06869263
0.01914454
0.09096024
0.0918024
0.09221494
0.0916234
0.09013024
0.08761364
0.08376941
0.07935479
0.07554112
0.07295729
0.0718056
0.07221431
0.07423813
0.07760474
0.08145641
0.08429643
0.0838891
0.07783782
0.06931175
0.06360347
0.06289988
0.06625232
0.07202487
0.07771508
0.08085974
0.08123117
0.07846776
0.07026475
0.05058456
0.01376115
0.08979912
0.08972188
0.09051561
0.09069876
0.08980572
0.08772854
0.08450846
0.08080079
0.077395
0.0748534
0.07350076
0.07355141
0.07508359
0.07783589
0.0810241
0.08333656
0.08279725
0.07706698
0.06886144
0.06331108
0.06255862
0.06542867
0.06997928
0.07422503
0.07642924
0.07591591
0.07172452
0.0616941
0.04199152
0.01140655
0.08928825
0.08828786
0.08852154
0.08862355
0.08792879
0.08618756
0.08353761
0.08050583
0.07767634
0.0754885
0.0742583
0.07421638
0.07543818
0.07765942
0.08016355
0.08185458
0.08108217
0.07556553
0.06748269
0.06180901
0.06074152
0.06304533
0.06677041
0.0702138
0.07187536
0.07104804
0.0667238
0.0570333
0.03882264
0.01098307
0.08912604
0.08765911
0.08735389
0.08705378
0.08615674
0.08438554
0.08196133
0.0793527
0.07698904
0.07518801
0.07420352
0.07422631
0.07528343
0.07706512
0.07888894
0.0798861
0.07879142
0.07338873
0.06526166
0.05929304
0.05787891
0.05981968
0.06320141
0.06646749
0.06815359
0.06764389
0.06400081
0.05545383
0.03865069
0.01124508
0.08909086
0.08743952
0.08682635
0.08620091
0.08503943
0.08308082
0.08063905
0.07818801
0.07606995
0.07452714
0.07374722
0.0738538
0.07478731
0.07614511
0.07723911
0.0774449
0.07595893
0.0706379
0.06241147
0.05613839
0.05454318
0.05648961
0.06004319
0.06365902
0.06578325
0.0658972
0.06312152
0.0556429
0.03966123
0.01156372
0.08908964
0.08736936
0.08659902
0.08577042
0.08440323
0.08225955
0.07970455
0.07726976
0.07525851
0.07385961
0.07320594
0.07335097
0.07412846
0.07500525
0.07525607
0.07454436
0.07263658
0.06744469
0.0591637
0.05267116
0.05110144
0.0533636
0.05742508
0.0616614
0.06441942
0.06518705
0.06314989
0.05642082
0.04080848
0.01179577
0.08909132
0.08733766
0.08647736
0.0855184
0.08399982
0.08172996
0.07910144
0.07665648
0.0746847
0.07334968
0.07274849
0.07286969
0.07342742
0.07372481
0.07297578
0.07121442
0.06892362
0.06398102
0.0557486
0.04913529
0.0477192
0.05044097
0.05513881
0.06008349
0.06351961
0.06486703
0.06339042
0.05714921
0.04169137
0.01194142
0.0890886
0.0873087
0.08638379
0.0853284
0.08369546
0.0813764
0.0787271
0.07627255
0.07431062
0.07299818
0.07240649
0.07246075
0.07274358
0.07236434
0.0704579
0.06755487
0.06502414
0.06049778
0.05242681
0.04574863
0.04448752
0.04763765
0.05293221
0.05856084
0.0626827
0.06454541
0.06350459
0.05759605
0.04222795
0.01202189
0.08908208
0.08727722
0.08630118
0.08517014
0.08343422
0.08103241
0.07836747
0.0759346
0.07400862
0.07273006
0.07214658
0.0721242
0.072112
0.07100989
0.06786322
0.06383905
0.06131731
0.05735412
0.04951227
0.04275056
0.04152838
0.04494973
0.05068816
0.05689601
0.06169329
0.06404675
0.06338207
0.0577295
0.04245392
0.01205544
0.08907362
0.08724464
0.08622539
0.08503189
0.08320617
0.0807422
0.07807203
0.07566566
0.07377744
0.07253174
0.07195481
0.07186048
0.07157825
0.06981744
0.06554696
0.06061514
0.05834659
0.05496359
0.04732462
0.04037046
0.03899344
0.04248309
0.04846721
0.05508144
0.06050008
0.0633523
0.06303853
0.05760293
0.04243962
0.01205579
0.08906509
0.08721446
0.08615921
0.08491458
0.08301383
0.08050289
0.07783899
0.07546088
0.07360546
0.07238595
0.07181329
0.07166477
0.07118941
0.06897627
0.06396558
0.05851063
0.05655097
0.05361398
0.04607086
0.03871896
0.0369213
0.04026698
0.04633929
0.05321919
0.05918341
0.06255851
0.06256852
0.05731471
0.04227256
0.0120346
0.089058
0.08719038
0.08610812
0.08482504
0.08286654
0.08031236
0.07764849
0.07529385
0.07346744
0.07226959
0.07170164
0.07152624
0.07096524
0.06857317
0.06330271
0.05773259
0.05603139
0.05339136
0.04584398
0.03787492
0.03537573
0.03838336
0.04444306
0.05153154
0.0579452
0.06180815
0.06208231
0.05696842
0.04203931
0.01200214
0.08905324
0.08717441
0.08607459
0.084767
0.08277312
0.08018667
0.07751915
0.07518067
0.07337105
0.0721824
0.07161539
0.07144266
0.07091612
0.06863904
0.06359826
0.05831411
0.05678593
0.05430608
0.04669094
0.03795147
0.03451724
0.037024
0.04298625
0.05023504
0.0569881
0.06121905
0.06167457
0.05665693
0.04181832
0.01196954
0.08905129
0.08716769
0.08606004
0.08474144
0.08273256
0.08013754
0.07747258
0.07513982
0.07332961
0.07213377
0.07156242
0.07142484
0.0710672
0.06924631
0.06502802
0.06049119
0.05895036
0.05638689
0.04860734
0.03901378
0.03448151
0.0363697
0.0421563
0.04947281
0.05641414
0.06085853
0.06141762
0.05645794
0.04167673
0.01194816
0.08905242
0.08717115
0.08606665
0.08475186
0.08274764
0.08015537
0.07749101
0.0751536
0.07333279
0.07212162
0.07154679
0.07147613
0.07140357
0.07033794
0.06748719
0.06414839
0.06251067
0.05957571
0.05146342
0.0409915
0.03529343
0.03649376
0.04203487
0.04930808
0.05627975
0.06077009
0.06135977
0.05642215
0.04165846
0.01194617
0.08905656
0.08718454
0.08609386
0.08479761
0.08281975
0.08024996
0.07758593
0.07522914
0.07338299
0.07214812
0.0715705
0.07158201
0.07183693
0.07161481
0.07026281
0.06831224
0.06677105
0.06336158
0.05482237
0.04359808
0.03685534
0.03737814
0.04261774
0.04973185
0.05657885
0.06095362
0.06150286
0.05655116
0.04176431
0.01196355
0.08906337
0.08720697
0.08614027
0.08487705
0.0829473
0.0804123
0.07774184
0.07535456
0.07347403
0.07221178
0.07163239
0.07172591
0.07228652
0.07281665
0.07275985
0.07209336
0.07090823
0.06716693
0.05819776
0.04639143
0.03888676
0.03886227
0.04378419
0.05063909
0.0572248
0.06134987
0.06179582
0.05679451
0.04195022
0.01199199
0.08907215
0.08723646
0.08620255
0.08498563
0.08312484
0.08063369
0.07795252
0.07553133
0.07361221
0.0723194
0.07173623
0.07190203
0.07272144
0.07386202
0.07483093
0.07524303
0.07454257
0.07063747
0.0613079
0.04912968
0.04119862
0.04080175
0.04541068
0.05192292
0.05812455
0.06189177
0.06216704
0.05707587
0.0421499
0.01202054
0.08908183
0.08727028
0.08627617
0.08511607
0.08333776
0.08089525
0.07820684
0.07575564
0.07379912
0.0724754
0.07188681
0.07211388
0.07314594
0.07476938
0.07653381
0.07781912
0.07761607
0.0736428
0.0640166
0.05166402
0.04362599
0.04303966
0.04737155
0.05350817
0.05921043
0.06252113
0.06254242
0.05731019
0.04228837
0.01203859
0.08909095
0.08730504
0.08635656
0.08526212
0.08357527
0.08120419
0.07852228
0.07604114
0.07404462
0.07268837
0.07209245
0.07237123
0.07357913
0.07558867
0.07797727
0.07996362
0.08020436
0.0761797
0.06629338
0.05392796
0.04602601
0.04538284
0.04948085
0.05527084
0.06038789
0.06317143
0.06284573
0.05740781
0.04228548
0.0120362
0.0890977
0.08733759
0.0864421
0.08542474
0.08383469
0.08151667
0.07884062
0.07634855
0.07433298
0.07295865
0.07236115
0.07268594
0.07404203
0.07636801
0.07925861
0.08180993
0.08241256
0.07830463
0.06819876
0.05598851
0.04842173
0.04781167
0.05166632
0.05705684
0.06152952
0.06374214
0.06298861
0.0572758
0.04205724
0.01200193
0.08909992
0.08736499
0.08653194
0.08560734
0.08412973
0.08188185
0.07924266
0.07676188
0.07473482
0.07333808
0.07272673
0.07307867
0.0745525
0.07714007
0.08044357
0.08345269
0.08432884
0.08009403
0.06985167
0.0580132
0.05097921
0.05046958
0.05401173
0.05883756
0.06257341
0.06417729
0.06292384
0.05684822
0.04152764
0.01192201
0.08909727
0.08739354
0.08664679
0.08584779
0.08451661
0.08240715
0.07986657
0.07741337
0.07535316
0.07389244
0.07322074
0.0735565
0.07510751
0.07790924
0.08155887
0.08494036
0.08600495
0.08160805
0.07134609
0.06009273
0.05373611
0.05335418
0.05651475
0.06067536
0.06365311
0.06460168
0.06273529
0.05614435
0.04065564
0.01177802
0.08909741
0.08746054
0.08686826
0.08626977
0.08513963
0.08322209
0.08080769
0.07834956
0.07619001
0.07459
0.07378997
0.07405745
0.07564946
0.07863471
0.08258801
0.086277
0.08745236
0.08286762
0.07269939
0.06219343
0.05662648
0.05646306
0.05931807
0.06287193
0.0651463
0.0653906
0.06274976
0.05538886
0.0395196
0.01154833
0.0891316
0.08767763
0.08739221
0.08711913
0.08625456
0.08452879
0.0821314
0.0795136
0.0771106
0.07525791
0.07425526
0.07441931
0.07604782
0.07922415
0.0834746
0.08743117
0.08864925
0.08384697
0.07383725
0.06415612
0.05947413
0.05973309
0.06257191
0.06580737
0.0675951
0.06719138
0.06366194
0.05521812
0.03851823
0.01123226
0.08929297
0.0883044
0.08855729
0.08868727
0.08802884
0.08634059
0.08371951
0.08067993
0.07780806
0.07556382
0.07430901
0.07438927
0.07611511
0.07955107
0.08413893
0.08835157
0.08955402
0.08448286
0.07460622
0.06570016
0.06192653
0.06284867
0.06612506
0.06958447
0.07135505
0.07063776
0.06641808
0.05681851
0.03870075
0.01097266
0.08980302
0.08973606
0.09054707
0.09075732
0.08990508
0.08789135
0.08470835
0.08099378
0.07752932
0.07491955
0.07353215
0.07368908
0.07567609
0.0795073
0.08451083
0.08898772
0.09012486
0.08470727
0.07483426
0.06649234
0.06347141
0.06513328
0.06923354
0.07355486
0.075933
0.07556018
0.07147154
0.06151691
0.0418886
0.01139887
0.09096293
0.09181219
0.09223737
0.09166949
0.09022039
0.08778192
0.08398818
0.07955043
0.07564484
0.07298381
0.07179677
0.07230617
0.07475406
0.07910202
0.08456649
0.08929433
0.09032571
0.08449848
0.0744628
0.06637244
0.06375455
0.06594007
0.0710069
0.07688054
0.08040008
0.08096605
0.07830109
0.07015171
0.05051563
0.0137571
0.09210979
0.09233484
0.091728