/*--------------------------------*- C++ -*----------------------------------*\
| =========                 |                                                 |
| \\      /  F ield         | OpenFOAM: The Open Source CFD Toolbox           |
|  \\    /   O peration     | Version:  2506                                  |
|   \\  /    A nd           | Website:  www.openfoam.com                      |
|    \\/     M anipulation  |                                                 |
\*---------------------------------------------------------------------------*/
FoamFile
{
    version     2.0;
    format      ascii;
    arch        "LSB;label=32;scalar=64";
    class       surfaceScalarField;
    location    "150/airRegion";
    object      phi;
}
// * * * * * * * * * * * * * * * * * * * * * * * * * * * * * * * * * * * * * //

dimensions      [1 0 -1 0 0 0 0];

oriented        oriented;

internalField   nonuniform List<scalar> 
257196
(
0.01087507
0.0007429865
0.0007407508
0.01061632
0.001111468
0.001104272
0.01033345
0.001185643
0.001171013
0.01017309
0.001207718
0.001182427
0.01033837
0.001311609
0.001273741
0.01120341
0.001539745
0.001502775
0.01408409
0.001052143
0.00111535
0.02403181
-0.004340091
-0.003992403
0.03875805
-0.01082216
-0.01028303
0.04844251
-0.01550331
-0.01491586
0.05335361
-0.02272903
-0.02211239
0.05376922
-0.03200642
-0.0313761
0.04953371
-0.04288316
-0.04227603
0.040665
-0.05452629
-0.05400832
0.02765563
-0.06536403
-0.06505085
0.01162699
-0.07304107
-0.0731214
-0.00534317
-0.07463003
-0.07537282
-0.01996558
-0.06767073
-0.06915932
-0.02943112
-0.05432682
-0.05622133
-0.03237249
-0.0383928
-0.04023202
-0.02847045
-0.02373541
-0.02512546
-0.01848432
-0.01287061
-0.01379753
-0.01118183
-0.002961698
-0.003690221
-0.009022872
0.002226583
0.00163685
-0.008226099
0.003221449
0.002794369
-0.007878488
0.003976789
0.003708511
-0.007552684
0.004828616
0.004662038
-0.006793478
0.005706051
0.005598991
-0.004696788
0.00596484
0.00589505
0.0004726111
0.00042538
0.01969805
0.0006572555
0.002287388
0.01957651
0.001077728
0.003385688
0.01944397
0.001192174
0.003474043
0.01955178
0.0012
0.003123763
0.02031055
0.001227304
0.002390913
0.0225765
0.001221005
0.0008388729
0.02854281
-0.0007418792
-0.003246925
0.03825798
-0.006641302
-0.007379739
0.04682392
-0.01255883
-0.01120722
0.05335562
-0.01765981
-0.01709372
0.05651083
-0.02386287
-0.02506609
0.05574723
-0.03155918
-0.03491641
0.05069439
-0.04057536
-0.04626848
0.04128279
-0.05026529
-0.05829304
0.02795203
-0.05931702
-0.06948187
0.0117773
-0.06568454
-0.07759603
-0.005281253
-0.06680322
-0.07982186
-0.02020619
-0.06064006
-0.07348582
-0.03040621
-0.0492315
-0.06025697
-0.03465753
-0.03576278
-0.04368264
-0.03315082
-0.02328313
-0.027658
-0.02773337
-0.01325262
-0.01512624
-0.02097642
-0.004298851
-0.005886996
-0.01678455
0.001151621
0.001252241
-0.01477351
0.002606606
0.006628185
-0.01362859
0.003607633
0.01021111
-0.01249098
0.004510596
0.01339073
-0.01046802
0.005248029
0.01703843
-0.005497321
0.005187691
0.02188262
0.0002218762
0.02918284
0.02368334
0.0004989356
0.003628057
0.02373969
0.0008852953
0.005479306
0.02389503
0.001025503
0.005596011
0.02448069
0.001050847
0.004791625
0.02607383
0.001104929
0.003017938
0.02963116
0.001155924
-0.0002697154
0.03721739
-0.00218608
-0.006350146
0.04731339
-0.008149116
-0.01057488
0.05451679
-0.01310195
-0.01379653
0.05898895
-0.01795225
-0.02025098
0.06042105
-0.02351799
-0.02895853
0.05829609
-0.03013973
-0.03948224
0.05222727
-0.03777834
-0.05135789
0.0421233
-0.04594997
-0.06370764
0.02837229
-0.05356935
-0.0750422
0.01196334
-0.05886019
-0.08317474
-0.005284235
-0.05955331
-0.08532905
-0.02055567
-0.05396229
-0.07884403
-0.03145334
-0.04400541
-0.06535281
-0.03686849
-0.03233874
-0.04821665
-0.03701436
-0.02138181
-0.03120255
-0.03291921
-0.01223552
-0.01721199
-0.02546032
-0.00465785
-0.007719738
-0.01999044
0.0002886339
0.001394456
-0.01704802
0.00200867
0.01032938
-0.01510378
0.003111858
0.0166724
-0.01306091
0.00398132
0.02237989
-0.00986172
0.004567104
0.02897228
-0.003195301
0.004402257
0.03759792
0.0009982467
0.04976706
0.02557211
0.0003440016
0.004645172
0.0257073
0.0006506485
0.007163473
0.02608625
0.0007864889
0.007328565
0.02713203
0.0008212028
0.006085321
0.02985338
0.0007617602
0.003231518
0.03616732
0.0002246444
-0.002560888
0.04557686
-0.002367971
-0.008864744
0.05427044
-0.007847056
-0.01221144
0.06039751
-0.01264851
-0.01656479
0.06369138
-0.01719731
-0.02378437
0.06390311
-0.02220963
-0.03315724
0.06067462
-0.02802043
-0.0442666
0.05370588
-0.03461189
-0.05657121
0.04294629
-0.04160878
-0.06916501
0.02877409
-0.04810443
-0.08059195
0.01211655
-0.05253727
-0.08871541
-0.005318888
-0.05286133
-0.090783
-0.02085892
-0.04768827
-0.08417685
-0.03219552
-0.03888183
-0.0705459
-0.03817387
-0.02868649
-0.05304468
-0.03880029
-0.01908388
-0.03526259
-0.03464786
-0.01103784
-0.0200994
-0.02668817
-0.004613689
-0.009266336
-0.02065089
-0.0001645082
0.00210435
-0.01716811
0.001515816
0.01382031
-0.01466161
0.002553951
0.02261988
-0.01205094
0.003310049
0.03065352
-0.008375323
0.003745687
0.03959656
-0.001351573
0.003539025
0.05038727
0.001087845
0.06350774
0.0264976
0.0002228324
0.005344839
0.02664964
0.0004445447
0.008377283
0.02716929
0.0005597934
0.008593306
0.02856341
0.0005962746
0.006966505
0.03167314
0.0006051259
0.003253306
0.0377415
0.000385916
-0.0036
0.04789522
-0.003682471
-0.01062463
0.05839557
-0.008460747
-0.01502655
0.06452617
-0.01204276
-0.01950875
0.06714715
-0.01593074
-0.02736598
0.06655184
-0.0203987
-0.03736808
0.06251946
-0.02551013
-0.04894421
0.05485496
-0.03124042
-0.06154195
0.04356418
-0.03728383
-0.07426621
0.02903243
-0.04287269
-0.08571352
0.01214595
-0.04661092
-0.0937924
-0.005455079
-0.04661711
-0.09575334
-0.02116542
-0.04178947
-0.08906064
-0.0327076
-0.03399596
-0.07543568
-0.03885231
-0.02514609
-0.0578016
-0.03946313
-0.01685961
-0.03947878
-0.03501528
-0.009935149
-0.02326072
-0.02665201
-0.004449037
-0.01088488
-0.02026276
-0.0004263946
0.002583432
-0.01642345
0.001080932
0.01659471
-0.01357249
0.001972104
0.02750725
-0.0107017
0.002584984
0.03745679
-0.006966939
0.002896548
0.04805228
-6.699892e-05
0.002684365
0.05995465
0.0009178246
0.07276959
0.02696565
0.0001394937
0.005790546
0.02711449
0.0002925488
0.009173106
0.02772928
0.0003858647
0.009414274
0.02940221
0.0004198981
0.00746676
0.03338526
0.0003267294
0.002926814
0.04178708
-0.0005024502
-0.006080475
0.05360967
-0.003777527
-0.01262777
0.06212035
-0.007538484
-0.01591724
0.06732976
-0.01090847
-0.02222192
0.06942721
-0.01443284
-0.03092031
0.06827642
-0.01837851
-0.04143558
0.06368727
-0.02284568
-0.05336031
0.05552621
-0.02781499
-0.06613564
0.04384528
-0.03303855
-0.07890151
0.02903737
-0.03786201
-0.09031974
0.01195955
-0.04101966
-0.0983275
-0.005770358
-0.04075438
-0.1001469
-0.02155603
-0.03626055
-0.09338048
-0.03313475
-0.02943905
-0.07988795
-0.03922625
-0.02189813
-0.06234639
-0.03963955
-0.01490956
-0.0437409
-0.0348788
-0.00905975
-0.02668745
-0.0261957
-0.004342
-0.01293374
-0.01959491
-0.0006285504
0.002418748
-0.01549905
0.0006787296
0.01833068
-0.01244757
0.001405994
0.03103358
-0.009495061
0.001882013
0.0425108
-0.005868255
0.002103689
0.05426184
0.0007648595
0.001927668
0.06676909
0.0006936983
0.07895343
0.02721593
8.754038e-05
0.006054986
0.02736455
0.0001968706
0.00964707
0.0280433
0.0002886549
0.009872387
0.02987241
0.0003716568
0.007637577
0.03407945
0.0003487834
0.002518801
0.04272898
-0.0009047474
-0.007421944
0.05504492
-0.004175131
-0.01446685
0.06378144
-0.007132712
-0.01813172
0.06888767
-0.009947367
-0.02509899
0.07071231
-0.01295873
-0.03432045
0.06920249
-0.01634272
-0.04523712
0.06423039
-0.02017448
-0.0574124
0.0557204
-0.02443247
-0.07028746
0.04375869
-0.02891382
-0.08304807
0.02873759
-0.03305966
-0.09442396
0.01148942
-0.03571492
-0.1023513
-0.006344364
-0.03522765
-0.1039777
-0.02213278
-0.03110381
-0.09712246
-0.03364073
-0.02526542
-0.08386179
-0.0395717
-0.01902614
-0.0666188
-0.03973235
-0.01331112
-0.04799576
-0.03468838
-0.008468013
-0.03038541
-0.02573367
-0.004383094
-0.01553866
-0.01901801
-0.0008594514
0.001521755
-0.01471194
0.0003176286
0.01895816
-0.01153274
0.000897872
0.03317874
-0.008572652
0.001256232
0.04588713
-0.005092026
0.001416431
0.05849317
0.001302113
0.0012876
0.07138215
0.0004883533
0.08302634
0.02737186
5.65526e-05
0.006200416
0.02755043
0.00013995
0.009898026
0.02833801
0.0002436992
0.01006361
0.03037875
0.0004308451
0.00751375
0.03480467
0.0006859087
0.0018676
0.04380111
-0.001238081
-0.008509105
0.0563152
-0.004733895
-0.01597072
0.06499693
-0.006879644
-0.02014747
0.06989306
-0.009041186
-0.02767748
0.07143035
-0.01149854
-0.03737244
0.06960295
-0.01431916
-0.04863554
0.06432038
-0.0175345
-0.06101238
0.05553776
-0.0211178
-0.07395584
0.04335234
-0.02490461
-0.08670751
0.02813865
-0.02842289
-0.09806319
0.01070348
-0.03062861
-0.1059168
-0.00723585
-0.02998603
-0.1072827
-0.02298274
-0.02631343
-0.1003045
-0.03436569
-0.02149137
-0.08735183
-0.04010704
-0.01654036
-0.07057842
-0.04002758
-0.01205855
-0.0521688
-0.03473547
-0.00816014
-0.03426716
-0.02553656
-0.004610508
-0.01861573
-0.01867911
-0.001152625
-0.0001664545
-0.01418405
3.730443e-05
0.01860268
-0.01089957
0.0004880812
0.03410988
-0.007942697
0.0007426907
0.04783336
-0.004588079
0.0008581853
0.0611174
0.001591384
0.0007850621
0.07430696
0.0003028974
0.08557797
0.02749234
3.543738e-05
0.006271955
0.02774824
9.302745e-05
0.01000586
0.02878357
0.0001701092
0.01007187
0.03148338
0.0003446924
0.007101746
0.03712474
0.000671915
0.0007101885
0.04694055
-0.001730492
-0.009412127
0.05844997
-0.00459591
-0.01649133
0.06634634
-0.006212331
-0.02161394
0.07072032
-0.00793103
-0.02980629
0.07186248
-0.009951788
-0.03998032
0.06969732
-0.01226659
-0.0515627
0.06412516
-0.01490626
-0.06411886
0.05510131
-0.01785
-0.07712709
0.04270946
-0.02096918
-0.08989247
0.02728827
-0.02387863
-0.1012711
0.009617652
-0.02566826
-0.1090649
-0.008449195
-0.02496964
-0.1100951
-0.02413625
-0.02186999
-0.1029626
-0.03539011
-0.0180935
-0.09037517
-0.0409827
-0.01438135
-0.07418884
-0.0407355
-0.01106432
-0.05614784
-0.03524217
-0.008073392
-0.03814685
-0.02583188
-0.005013485
-0.02191776
-0.01864123
-0.001394714
-0.002753902
-0.01395819
-8.994044e-05
0.01748862
-0.01055185
0.000210237
0.03407659
-0.007572156
0.0003591886
0.04865363
-0.004292303
0.0004319379
0.06250023
0.001758967
0.000401355
0.07595118
0.0001548494
0.08703415
0.02757403
2.251044e-05
0.00629831
0.02788839
6.264075e-05
0.01002399
0.02907356
0.0001238934
0.009987231
0.03229019
0.0002481459
0.006671928
0.03940979
0.0003323742
-0.0008963786
0.05013576
-0.001525827
-0.01045001
0.06007374
-0.003966046
-0.01662609
0.06721915
-0.005365735
-0.02296458
0.07122814
-0.006756835
-0.03167013
0.07205049
-0.008353178
-0.04217702
0.06959551
-0.01018488
-0.05401561
0.06376798
-0.01227239
-0.06672669
0.05452456
-0.01459616
-0.07980325
0.04192955
-0.01705423
-0.09261002
0.026276
-0.01934654
-0.1040526
0.00832035
-0.02074115
-0.1117951
-0.009894762
-0.02012441
-0.1124321
-0.02552928
-0.0177381
-0.1051511
-0.03670732
-0.01500058
-0.09297417
-0.04227248
-0.01240971
-0.07742284
-0.04202124
-0.01012707
-0.05979736
-0.03645175
-0.008013217
-0.0417625
-0.0267351
-0.005568289
-0.02511902
-0.01907015
-0.001709985
-0.00539336
-0.01407564
-4.477969e-05
0.01581959
-0.01048424
7.271586e-05
0.03332786
-0.00742645
0.0001028384
0.04864494
-0.004159951
0.0001288913
0.06296954
0.00183247
0.0001241403
0.0766568
4.443088e-05
0.08769695
0.02763838
1.425303e-05
0.006300707
0.02801169
4.09653e-05
0.009995796
0.02935251
8.432717e-05
0.009850039
0.03294917
0.0001523951
0.006234104
0.04073044
0.0001009818
-0.002168364
0.05200695
-0.001270232
-0.01125581
0.06135407
-0.003127019
-0.01690254
0.06799203
-0.004357787
-0.02398369
0.07163778
-0.005468349
-0.03310796
0.07215574
-0.006674036
-0.04391647
0.0694313
-0.008047847
-0.05597719
0.06337001
-0.009605309
-0.06882806
0.0539241
-0.01132282
-0.08197712
0.04113425
-0.01311634
-0.09484
0.02524639
-0.01477255
-0.1063565
0.006998287
-0.01579153
-0.1140426
-0.01136244
-0.01541375
-0.1142993
-0.02697821
-0.01385898
-0.1069503
-0.03819178
-0.01209603
-0.0952235
-0.04392946
-0.01042749
-0.08028748
-0.04397017
-0.008933912
-0.06300771
-0.0387044
-0.007538972
-0.04482656
-0.02895478
-0.005796935
-0.02769792
-0.02048056
-0.002091272
-0.007808478
-0.01469899
4.408417e-05
0.01361162
-0.01071855
-6.6392e-06
0.03206479
-0.007478556
-6.522378e-05
0.04807743
-0.004157161
-7.123839e-05
0.06281043
0.001835038
-6.01944e-05
0.07670515
-3.131226e-05
0.08779514
0.02768891
8.021266e-06
0.006292135
0.02811354
2.169501e-05
0.009948583
0.02958365
3.757824e-05
0.009700144
0.03344311
2.907218e-05
0.005830739
0.04164513
-0.0001406699
-0.003174282
0.05327239
-0.0008937324
-0.01188926
0.0623635
-0.002008564
-0.01721043
0.06864676
-0.003134897
-0.02467928
0.07198601
-0.004031033
-0.03413795
0.07223913
-0.004896057
-0.04520575
0.06928277
-0.005845321
-0.05745062
0.06302483
-0.006897574
-0.07041644
0.05341232
-0.008023643
-0.08362462
0.04046559
-0.009153563
-0.09652446
0.02439307
-0.01016424
-0.1080765
0.005920001
-0.01083054
-0.1157009
-0.01254566
-0.01081956
-0.1157194
-0.02817998
-0.01016282
-0.1084637
-0.03952892
-0.009284994
-0.09723267
-0.04557896
-0.008335415
-0.0828985
-0.04610001
-0.007359586
-0.06593936
-0.04148348
-0.006412293
-0.04754
-0.03217973
-0.005319935
-0.02963326
-0.02258576
-0.002533243
-0.0101175
-0.01565681
8.987173e-05
0.01092574
-0.01113678
-7.688142e-05
0.03051738
-0.007653397
-0.000172733
0.04719352
-0.004236775
-0.0001826264
0.06226478
0.001791799
-0.0001607908
0.07633201
-7.439812e-05
0.08752166
0.02771862
4.439144e-06
0.006280428
0.0281651
1.130437e-05
0.009900547
0.02966161
1.708184e-05
0.009575237
0.03350533
-2.426334e-05
0.005575452
0.04162506
-0.0002209393
-0.00351785
0.05322096
-0.0004858969
-0.01242218
0.06259303
-0.001048176
-0.01790448
0.06894228
-0.001956628
-0.02529062
0.07218744
-0.002565593
-0.03487182
0.07229028
-0.003073924
-0.0460911
0.06918452
-0.003612723
-0.05845444
0.06279878
-0.004180272
-0.07148812
0.05308655
-0.004734271
-0.08471735
0.0400611
-0.005212951
-0.09760849
0.02391104
-0.005582785
-0.1091396
0.005349182
-0.005910066
-0.1167234
-0.01315841
-0.006319565
-0.1167353
-0.02884721
-0.00657141
-0.1097544
-0.04039139
-0.006509623
-0.09904599
-0.04678783
-0.006156589
-0.08530696
-0.04777265
-0.005535542
-0.06873126
-0.04399029
-0.004726624
-0.05018678
-0.03622442
-0.003658234
-0.0310915
-0.02528343
-0.001895004
-0.01270779
-0.0167085
-0.0003186259
0.00798142
-0.01155587
-0.0002049171
0.02897815
-0.007857849
-0.0002124454
0.04621686
-0.004347382
-0.0002064798
0.06154402
0.00172851
-0.0001790665
0.0757442
-8.17154e-05
0.08704619
0.02773729
2.302566e-06
0.006271318
0.02819501
6.539172e-06
0.009866125
0.02969147
1.550353e-05
0.00948845
0.03341549
-2.556452e-05
0.005415344
0.0412542
-0.0003052277
-0.003468481
0.05257933
0.0001797959
-0.01276272
0.06257201
-0.0002209453
-0.0186224
0.0691201
-0.0008066979
-0.02563391
0.07233459
-0.001074943
-0.03527346
0.07235427
-0.001233604
-0.04658867
0.06916917
-0.001384888
-0.0590076
0.0627311
-0.001497341
-0.07205456
0.05300384
-0.00151283
-0.08525422
0.04000722
-0.001373075
-0.09807598
0.02392963
-0.001124608
-0.1095211
0.005463187
-0.001109164
-0.1170988
-0.01301139
-0.001886828
-0.1173686
-0.02879789
-0.002987253
-0.1108283
-0.04059234
-0.003693165
-0.1006167
-0.04733011
-0.003909466
-0.08738799
-0.04861156
-0.003650761
-0.07118627
-0.04498544
-0.00308009
-0.05274088
-0.03709341
-0.002305389
-0.03343954
-0.02586263
-0.001296179
-0.01494802
-0.01715231
-0.0003261508
0.006233299
-0.01182594
-0.0001858529
0.02778531
-0.008017231
-0.0001597631
0.04535613
-0.004445905
-0.0001450352
0.06086008
0.001668852
-0.0001223198
0.07515499
-5.426937e-05
0.08655584
0.02774892
-4.140639e-07
0.00626805
0.02821957
-1.296345e-06
0.009853418
0.02975512
-4.883636e-06
0.009446579
0.03331739
4.157267e-05
0.005341769
0.04009713
0.0002992079
-0.003106304
0.051029
-0.0003162581
-0.01263639
0.06250215
-0.0001236752
-0.01929394
0.06932487
0.0003156758
-0.02568877
0.07246695
0.0004911073
-0.03533724
0.07243688
0.0006168721
-0.04671904
0.06923067
0.000811471
-0.05914104
0.06280709
0.001113015
-0.0721555
0.05314289
0.001585644
-0.08528346
0.0402862
0.002279121
-0.09797846
0.02446024
0.003078734
-0.1092635
0.006326978
0.003435905
-0.1168504
-0.01200303
0.002464733
-0.1176131
-0.02793534
0.0006919839
-0.1116562
-0.04005961
-0.0007207702
-0.1018798
-0.04720351
-0.001520486
-0.08899514
-0.04880272
-0.00168803
-0.07301237
-0.04531479
-0.001462704
-0.05460507
-0.03737759
-0.001081365
-0.03517672
-0.02609684
-0.0006290295
-0.01647917
-0.01736525
-0.0001740144
0.005161349
-0.01197025
-7.527819e-05
0.02701707
-0.008110024
-4.461973e-05
0.04479192
-0.004505972
-2.972723e-05
0.0604092
0.001631698
-1.885686e-05
0.07476613
-4.387171e-06
0.08623399
0.02774385
-2.886087e-06
0.006271244
0.02820819
-8.18498e-06
0.009862831
0.02972076
-1.452383e-05
0.009472327
0.03347756
1.244763e-05
0.005366862
0.04137873
0.0001521782
-0.003558337
0.05274935
0.0003716274
-0.01279414
0.06272648
0.0008129031
-0.01859535
0.06925206
0.001522971
-0.02558549
0.07244932
0.001987241
-0.03522919
0.07247372
0.002411503
-0.04652994
0.06932815
0.002937538
-0.05889644
0.06298211
0.003623383
-0.07184635
0.05343664
0.004534742
-0.08487948
0.04078857
0.005702296
-0.09741256
0.02532669
0.006950877
-0.1084745
0.007701877
0.007616021
-0.1160423
-0.01032765
0.006655153
-0.117412
-0.02635045
0.004470148
-0.1121608
-0.03882179
0.00246832
-0.1027644
-0.04642508
0.001083994
-0.09003301
-0.0484056
0.0004163545
-0.07405366
-0.0451405
0.0002052833
-0.05553872
-0.03730422
0.0001336754
-0.03594697
-0.02608313
6.461808e-05
-0.01707781
-0.01738882
2.393796e-05
0.004782704
-0.01198879
5.775971e-05
0.02677093
-0.008120447
7.985009e-05
0.04464334
-0.004511032
8.917113e-05
0.06031852
0.001628991
8.570531e-05
0.07470903
4.521773e-05
0.08620116
0.02772839
-6.139334e-06
0.006280769
0.02818176
-1.899098e-05
0.009894924
0.02969463
-4.132168e-05
0.009547877
0.03356798
-6.694005e-05
0.005501479
0.04174008
1.058759e-05
-0.003639021
0.05338275
0.0007857524
-0.01251148
0.06275223
0.001900763
-0.0179504
0.06910802
0.002746966
-0.02528951
0.07235447
0.003422415
-0.03485936
0.07248211
0.004129884
-0.04604279
0.06945302
0.004978202
-0.05830924
0.06323161
0.006030993
-0.07116986
0.05383767
0.007346034
-0.08410096
0.04141378
0.008923804
-0.09646864
0.02631283
0.01053492
-0.1072948
0.009196377
0.01146953
-0.114817
-0.0084632
0.0106574
-0.1167522
-0.02446059
0.008285617
-0.1122018
-0.03716892
0.005826594
-0.1031229
-0.04516271
0.003882845
-0.09038913
-0.04751765
0.002666801
-0.07421342
-0.04452635
0.001955507
-0.05544441
-0.03688742
0.001383029
-0.03565727
-0.02582345
0.0007575645
-0.01668887
-0.01723006
0.000204925
0.0051176
-0.01188866
0.000158024
0.02706523
-0.00805199
0.0001621984
0.04492128
-0.004462502
0.0001617379
0.06059313
0.001660231
0.0001461835
0.07498524
7.227186e-05
0.08645688
0.02769891
-1.010867e-05
0.006294557
0.02812153
-3.131922e-05
0.009944225
0.0295717
-7.000715e-05
0.009670389
0.033347
-0.0001522033
0.005774109
0.04139558
-0.000175964
-0.003128778
0.05288613
0.001169147
-0.0120992
0.06225363
0.002885287
-0.017634
0.06872445
0.00386504
-0.02487029
0.07213867
0.00475278
-0.0342571
0.07244796
0.005748986
-0.04526407
0.06959311
0.006928366
-0.05738819
0.06353504
0.008350696
-0.07014193
0.05430748
0.010058
-0.08297963
0.04208926
0.01201512
-0.09522017
0.02728626
0.01394472
-0.1058716
0.01058426
0.01512829
-0.1133612
-0.006733212
0.01453133
-0.1157271
-0.02264241
0.01212046
-0.1117472
-0.03547247
0.009306824
-0.10288
-0.04372737
0.006829877
-0.08999801
-0.04637262
0.00504212
-0.07346453
-0.04364486
0.003809555
-0.05434363
-0.03625546
0.002713228
-0.03436999
-0.02540227
0.001420154
-0.01540031
-0.01694372
0.000299918
0.006088768
-0.01170695
0.0001769816
0.02781038
-0.007932702
0.0001641426
0.04552179
-0.004381233
0.0001542005
0.06111531
0.001712243
0.0001345221
0.07546692
6.553184e-05
0.08687968
0.02765631
-1.514331e-05
0.006309531
0.02803112
-4.419669e-05
0.01000249
0.02936453
-9.138477e-05
0.009824824
0.03283348
-0.0001613429
0.006166568
0.04018855
-0.0001014069
-0.002045594
0.0512709
0.001237755
-0.01149937
0.06121344
0.003305305
-0.01760575
0.0681151
0.004710338
-0.02431936
0.07182157
0.005936685
-0.03338691
0.07237976
0.007261197
-0.04416694
0.06974316
0.008798653
-0.05612042
0.06387478
0.01060961
-0.06875952
0.0548156
0.01272141
-0.08152286
0.04276824
0.01506103
-0.09368938
0.02817733
0.01730806
-0.1042468
0.01176162
0.01874329
-0.1117362
-0.005295276
0.01838015
-0.1144008
-0.02109465
0.01599627
-0.1108157
-0.03394811
0.01288509
-0.1020244
-0.04232403
0.009892142
-0.08886483
-0.045139
0.007531572
-0.07186781
-0.04262533
0.005815599
-0.05236695
-0.03554063
0.004244752
-0.03227131
-0.02492421
0.001997893
-0.01339266
-0.01659616
0.000181014
0.007557605
-0.01149113
6.029366e-05
0.02885693
-0.007802192
5.985565e-05
0.04627689
-0.004298015
4.92396e-05
0.06170161
0.001765404
3.934996e-05
0.07596208
2.330383e-05
0.08729399
0.02760237
-2.294656e-05
0.006320417
0.02792471
-6.361119e-05
0.01005632
0.0291382
-0.0001236524
0.00998741
0.03240789
-0.0002201871
0.006579268
0.03954018
-0.0002139332
-0.001166409
0.05031802
0.001341485
-0.0108097
0.06027725
0.003802079
-0.01704723
0.06743815
0.005483318
-0.02346697
0.07143917
0.00701129
-0.03221864
0.07227424
0.008687423
-0.04272958
0.06988494
0.01061236
-0.05448712
0.06422222
0.0128442
-0.06700732
0.05532607
0.0153922
-0.07971871
0.04341064
0.01814605
-0.09186564
0.02894932
0.02074172
-0.102407
0.01269887
0.02244994
-0.1099329
-0.004192588
0.02231493
-0.1127942
-0.01988882
0.01996011
-0.1094336
-0.03268283
0.01655097
-0.1005836
-0.04101827
0.01301503
-0.08705461
-0.04379207
0.01003978
-0.06958185
-0.04126283
0.007872755
-0.04981544
-0.03441549
0.006073547
-0.02983205
-0.02422768
0.00256161
-0.01096758
-0.01613629
-0.0003589649
0.009479762
-0.01125464
-0.0002154058
0.03006121
-0.00769354
-0.0001525261
0.04700035
-0.004243346
-0.000157095
0.06215014
0.001799523
-0.0001421191
0.07626612
-5.155533e-05
0.08752057
0.02753788
-3.611812e-05
0.006319121
0.02780645
-9.616585e-05
0.01008782
0.0288977
-0.0001842393
0.01012881
0.03197278
-0.0004045868
0.006987515
0.0390119
-0.0008540499
-0.000300438
0.0494573
0.001638936
-0.009942501
0.05932362
0.004777618
-0.01620966
0.06671418
0.006321474
-0.02227073
0.07100467
0.008034819
-0.03069173
0.07212321
0.01006724
-0.04091534
0.06999039
0.01240754
-0.05245994
0.06453843
0.01509855
-0.06485995
0.05579571
0.0181285
-0.07754121
0.0439773
0.02134813
-0.08971746
0.02957802
0.02434426
-0.1003085
0.01339592
0.02635831
-0.1079044
-0.003412056
0.02643473
-0.1108921
-0.01901601
0.02406137
-0.1076148
-0.03166221
0.02028137
-0.09859847
-0.03973693
0.01607041
-0.08467697
-0.04205582
0.01225185
-0.06687258
-0.03855322
0.00918436
-0.04731115
-0.02998665
0.006385513
-0.02867664
-0.02128156
0.001989378
-0.008585735
-0.01511242
-0.0003026302
0.01244341
-0.01095677
-0.0003869496
0.03134446
-0.007629671
-0.0004243061
0.04749739
-0.004246101
-0.0004571745
0.06225259
0.001795181
-0.0004125766
0.07617469
-0.0001591898
0.08739132
0.02744838
-5.474558e-05
0.006291996
0.0276381
-0.0001318646
0.010068
0.02849664
-0.0002155707
0.01021821
0.03070893
-0.0003264265
0.00750336
0.03535196
-0.0003684018
0.001555256
0.04462556
0.001045308
-0.008901993
0.05700296
0.004171146
-0.01657863
0.06554508
0.006568221
-0.02110614
0.07034151
0.008872847
-0.02888762
0.07182373
0.01137373
-0.03873695
0.06998119
0.01419803
-0.05002527
0.0647545
0.01740584
-0.06229247
0.0561636
0.02097858
-0.07495775
0.04442048
0.02473117
-0.087202
0.03003659
0.02819369
-0.09789384
0.0138519
0.03055492
-0.1055873
-0.002941258
0.03082478
-0.1086535
-0.01848158
0.02835866
-0.1053477
-0.03095318
0.02409073
-0.09607329
-0.03869405
0.01902738
-0.0817426
-0.04049633
0.01411387
-0.06370498
-0.03626712
0.009863377
-0.04444758
-0.02708971
0.005972188
-0.02674482
-0.01943212
0.001577921
-0.006560764
-0.01446275
-0.0001483547
0.01469488
-0.01083627
-0.0005562396
0.03224608
-0.007714446
-0.0007665685
0.04751399
-0.004359496
-0.0008615683
0.06176918
0.001726112
-0.0007822055
0.07545498
-0.0003015496
0.08671541
0.02733907
-8.54481e-05
0.006219782
0.02747596
-0.0001880896
0.009957544
0.02817674
-0.0002620294
0.01019441
0.03007669
-0.0002993232
0.007799144
0.03437382
-0.000200276
0.002360917
0.04312664
0.0007788217
-0.008000825
0.05558236
0.003738555
-0.01545457
0.06443992
0.006762803
-0.01945024
0.06956406
0.009654668
-0.02672805
0.07134963
0.01267488
-0.03615804
0.06978507
0.01602667
-0.04715793
0.06478762
0.01980263
-0.05927849
0.05635433
0.0239814
-0.07193476
0.04468267
0.02834211
-0.08427292
0.0302919
0.03234758
-0.09510149
0.01405846
0.03510723
-0.102911
-0.002776578
0.03556078
-0.1060197
-0.01830155
0.03292564
-0.1025918
-0.03064335
0.0280534
-0.09296728
-0.03813854
0.02200069
-0.0781759
-0.03967731
0.01588036
-0.05989414
-0.03530529
0.01045739
-0.04087122
-0.02635577
0.005736368
-0.0238164
-0.01919973
0.001336544
-0.004360108
-0.01453339
-0.0002423237
0.01600283
-0.01110198
-0.0008740169
0.03242038
-0.00805018
-0.00123456
0.04676187
-0.00464276
-0.001394895
0.06042178
0.001562355
-0.001269633
0.07383152
-0.0004808887
0.08527019
0.02719486
-0.0001386773
0.00607297
0.02731983
-0.0002890256
0.009701625
0.02795702
-0.0003758842
0.009986588
0.02973416
-0.0003991759
0.007857978
0.03390408
-0.000305812
0.002885655
0.04245811
0.000363765
-0.006878178
0.05466964
0.003434005
-0.01383361
0.06342249
0.007205897
-0.01738243
0.06862105
0.01060915
-0.02416011
0.07059836
0.01408468
-0.03316122
0.06927813
0.01794692
-0.04385199
0.0645203
0.0223125
-0.05580832
0.05627204
0.02715273
-0.06844909
0.04469693
0.03220234
-0.08088894
0.03030956
0.03683793
-0.09187034
0.01401414
0.04005975
-0.09980297
-0.002890709
0.04069938
-0.1029238
-0.01842876
0.03782501
-0.09929958
-0.03067191
0.03223967
-0.08925447
-0.03799
0.02509548
-0.0739847
-0.03941389
0.01772529
-0.0555255
-0.03508799
0.01116943
-0.03686079
-0.02633842
0.005693745
-0.02066271
-0.01947969
0.001137208
-0.002271595
-0.01500319
-0.0005149171
0.0165709
-0.01169967
-0.001324139
0.03166894
-0.008663514
-0.001826748
0.04493541
-0.005140531
-0.002062506
0.0578758
0.001276214
-0.001898666
0.0709602
-0.0006809726
0.08275393
0.02695024
-0.0002234331
0.00580532
0.02708258
-0.0004464055
0.009218162
0.02766846
-0.0005643852
0.009507367
0.02930505
-0.0006135263
0.007644982
0.03325433
-0.0006371915
0.003246089
0.04154307
-0.0003574581
-0.005591878
0.05327929
0.003190878
-0.01202612
0.06174639
0.008011625
-0.01523224
0.06701607
0.01172741
-0.02140548
0.06921892
0.01555987
-0.0298817
0.06820743
0.01990319
-0.04019144
0.06377382
0.02487925
-0.05192521
0.0557975
0.03044889
-0.06450754
0.0443942
0.03628918
-0.07702436
0.03006378
0.04166543
-0.08814788
0.01373322
0.04543358
-0.09619444
-0.003230144
0.04627604
-0.09929971
-0.01876923
0.04309532
-0.09543116
-0.03090221
0.03668672
-0.08493795
-0.03805822
0.02836019
-0.06923973
-0.03942513
0.01971321
-0.05075676
-0.03520096
0.01203559
-0.03268515
-0.02660652
0.005764238
-0.01765601
-0.02003158
0.0008939984
-0.0006284723
-0.01575936
-0.0008759903
0.01625347
-0.0125978
-0.001856311
0.02976073
-0.009579002
-0.002509412
0.0417206
-0.00591506
-0.002843855
0.05375458
0.0007362184
-0.00264839
0.06642644
-0.0009042699
0.07873438
0.02648263
-0.0003450064
0.005354992
0.02661733
-0.0006539411
0.008409231
0.02710062
-0.000794242
0.008661222
0.0284193
-0.0008389087
0.007111332
0.03161465
-0.0008806125
0.003521161
0.03853362
-0.0008466623
-0.003539968
0.04901109
0.002655869
-0.01025216
0.05810981
0.008052147
-0.01396921
0.06401284
0.01242389
-0.0188624
0.06675877
0.01676991
-0.02653489
0.06629178
0.02166053
-0.03630876
0.06237928
0.027328
-0.04770824
0.05483918
0.03374926
-0.06014358
0.04373716
0.04053373
-0.07267186
0.02955758
0.04680547
-0.08389486
0.01325332
0.05123646
-0.09202892
-0.003722699
0.05231398
-0.09509429
-0.01921001
0.04875275
-0.09096374
-0.03116993
0.04138913
-0.08004965
-0.03811102
0.03176755
-0.06404251
-0.03940196
0.02180214
-0.04575132
-0.03530272
0.01299653
-0.0285398
-0.02695719
0.005881612
-0.01496681
-0.02063969
0.0006626674
9.365172e-05
-0.01665713
-0.001270689
0.0149187
-0.01371243
-0.002415561
0.02651124
-0.01078272
-0.003224509
0.03685185
-0.007013
-0.00368968
0.04767116
-9.329668e-05
-0.003503254
0.05970279
-0.001075141
0.07261314
0.02555774
-0.0004995877
0.004650454
0.02567611
-0.0008870675
0.007181474
0.02601532
-0.001027669
0.007369975
0.0269732
-0.001050068
0.006179183
0.02927199
-0.00101228
0.003507871
0.03402677
-0.0006814314
-0.001516353
0.04283971
0.001272605
-0.008361642
0.05310955
0.006960626
-0.01264017
0.0597103
0.01260196
-0.01619319
0.06314101
0.01748922
-0.02308237
0.06346362
0.02293043
-0.03227676
0.0603152
0.02941689
-0.04323608
0.05341479
0.03689062
-0.05540895
0.04276863
0.04485223
-0.06785011
0.02884783
0.05224081
-0.0791034
0.01264104
0.05749667
-0.0872847
-0.004290111
0.05885872
-0.09029157
-0.01964911
0.05481908
-0.08591303
-0.03132238
0.04630729
-0.07465681
-0.03790468
0.03519945
-0.05851491
-0.03898279
0.02381364
-0.04065291
-0.0349621
0.01386983
-0.02452715
-0.02695027
0.005875039
-0.01259623
-0.02098693
0.0003368343
0.0001798641
-0.01739075
-0.001702951
0.01258037
-0.01479926
-0.002956268
0.02191089
-0.01213213
-0.003894859
0.03023509
-0.008421905
-0.004514974
0.03933965
-0.001380788
-0.004369877
0.05022475
-0.0009911956
0.06341289
0.02367078
-0.0006571739
0.003629347
0.02371465
-0.00107761
0.005485335
0.02384585
-0.001192289
0.005612587
0.02439594
-0.001201208
0.004839179
0.02619741
-0.00127984
0.003085529
0.03091643
-0.001578453
-0.0007373195
0.03874712
0.0003956129
-0.006152139
0.04714486
0.006523904
-0.009369915
0.05380687
0.01260903
-0.01331771
0.05831005
0.0172586
-0.01967692
0.05981344
0.02326313
-0.02824003
0.05773225
0.03083065
-0.03865016
0.05168336
0.0396967
-0.0504305
0.04162867
0.04918554
-0.06266902
0.02804903
0.05799577
-0.07387134
0.01198975
0.06428758
-0.08205645
-0.004855031
0.06599859