/*--------------------------------*- C++ -*----------------------------------*\
| =========                 |                                                 |
| \\      /  F ield         | OpenFOAM: The Open Source CFD Toolbox           |
|  \\    /   O peration     | Version:  2506                                  |
|   \\  /    A nd           | Website:  www.openfoam.com                      |
|    \\/     M anipulation  |                                                 |
\*---------------------------------------------------------------------------*/
FoamFile
{
    version     2.0;
    format      ascii;
    arch        "LSB;label=32;scalar=64";
    class       volVectorField;
    location    "150/airRegion";
    object      U;
}
// * * * * * * * * * * * * * * * * * * * * * * * * * * * * * * * * * * * * * //

dimensions      [0 1 -1 0 0 0 0];

internalField   nonuniform List<vector> 
85779
(
(-0.00139174 -0.001395229 -0.02129746)
(-0.00197626 -0.001987613 -0.02092142)
(-0.002083495 -0.002106411 -0.02034405)
(-0.002210262 -0.002249084 -0.01984235)
(-0.002668595 -0.002723752 -0.01977933)
(-0.003698335 -0.003752708 -0.02062619)
(-0.00448011 -0.004436697 -0.02284027)
(0.0005376178 0.0009744197 -0.02964335)
(0.009965311 0.01080858 -0.06578428)
(0.02172806 0.02263883 -0.08665438)
(0.03926296 0.04016814 -0.1007498)
(0.06086221 0.06171668 -0.1062382)
(0.085775 0.08650682 -0.1026604)
(0.1122418 0.1127377 -0.08984686)
(0.1369155 0.1369917 -0.06819141)
(0.1548617 0.1542374 -0.03933882)
(0.1598129 0.1581398 -0.006020075)
(0.1457847 0.1430228 0.02676248)
(0.1165601 0.1132884 0.05091922)
(0.08033118 0.07730533 0.06319665)
(0.04570846 0.04358935 0.0619361)
(0.01972876 0.01855324 0.05021519)
(0.001619646 0.0007695952 0.02306325)
(-0.004926173 -0.00607379 0.01844628)
(-0.006142022 -0.007002933 0.01658764)
(-0.007564325 -0.008109164 0.01555533)
(-0.009428769 -0.009781748 0.01505326)
(-0.01169732 -0.01194235 0.01410151)
(-0.0135474 -0.01372897 0.01245455)
(-0.00495298 -0.005108024 0.003019865)
(-0.004418943 -0.001406429 -0.03827647)
(-0.006418458 -0.002219928 -0.03820031)
(-0.006620335 -0.002403092 -0.0378872)
(-0.006309226 -0.002391006 -0.03774802)
(-0.00580493 -0.002427004 -0.03848451)
(-0.004579904 -0.002512152 -0.04083924)
(0.0009141786 0.0001175032 -0.04442229)
(0.004684416 0.01188134 -0.06683056)
(0.01181503 0.02326304 -0.08393486)
(0.02645781 0.03329502 -0.09852076)
(0.04553603 0.04612385 -0.1083729)
(0.0683852 0.06232122 -0.1110507)
(0.09429519 0.08140087 -0.1055673)
(0.1214362 0.1019242 -0.09145787)
(0.1464797 0.121099 -0.06898698)
(0.1645719 0.1346619 -0.03971275)
(0.169483 0.137282 -0.006255554)
(0.1551233 0.124595 0.02678865)
(0.1251386 0.1007382 0.05186351)
(0.08750242 0.07250806 0.06610308)
(0.05081996 0.04639641 0.06815117)
(0.02212932 0.02562066 0.0614803)
(0.004329004 0.007706275 0.0477332)
(-0.006520515 -0.002989902 0.03318257)
(-0.01510389 -0.005577845 0.0303142)
(-0.02121506 -0.007373504 0.02748743)
(-0.02752783 -0.009069995 0.02545717)
(-0.03596392 -0.01047158 0.02252359)
(-0.04973695 -0.0100254 0.01941635)
(-0.06707057 0.0019976 -0.002522618)
(-0.007050535 -0.001134728 -0.04592987)
(-0.01056993 -0.001946772 -0.04607218)
(-0.01096606 -0.002206752 -0.04620892)
(-0.01012288 -0.002233615 -0.04678029)
(-0.008282829 -0.002300608 -0.04877252)
(-0.004491947 -0.002273574 -0.05220908)
(0.004188305 0.00280973 -0.06036466)
(0.009431903 0.01496833 -0.08585772)
(0.01698249 0.02563904 -0.1000905)
(0.03289641 0.03534872 -0.1113519)
(0.05351702 0.04665429 -0.1175466)
(0.07788843 0.06035331 -0.1171731)
(0.1050157 0.07629929 -0.1093743)
(0.1329495 0.09342274 -0.09362069)
(0.1583936 0.109416 -0.07009969)
(0.1765896 0.1205928 -0.04023884)
(0.1813616 0.1223008 -0.006459497)
(0.1666187 0.1109744 0.02700349)
(0.1359332 0.09043286 0.05301407)
(0.09690714 0.06628917 0.06911147)
(0.05801139 0.04375863 0.07385986)
(0.02591977 0.02519886 0.06967523)
(0.005724213 0.009238739 0.06038363)
(-0.008613514 -0.001252674 0.03919203)
(-0.02374093 -0.004435313 0.03559938)
(-0.03484653 -0.006532656 0.03115365)
(-0.0461004 -0.008266788 0.02746888)
(-0.06059674 -0.0095045 0.02248794)
(-0.08253363 -0.009205316 0.01820419)
(-0.1043222 -0.001864603 -0.01026644)
(-0.009057105 -0.0008102909 -0.04962306)
(-0.01395235 -0.001490299 -0.04976261)
(-0.01461375 -0.001768204 -0.05017843)
(-0.01326866 -0.001831754 -0.05142704)
(-0.01000148 -0.001828957 -0.05466997)
(-0.002087659 -0.001383101 -0.05924767)
(0.005773023 0.00467959 -0.08006622)
(0.01120226 0.01580992 -0.09963147)
(0.02229532 0.02531115 -0.1123994)
(0.03998119 0.03447978 -0.1217882)
(0.0621051 0.0447401 -0.1255032)
(0.08783438 0.05674696 -0.122795)
(0.1159798 0.07045774 -0.1130135)
(0.1445299 0.08505925 -0.09573869)
(0.1702592 0.09863909 -0.07118919)
(0.1885034 0.107981 -0.04072259)
(0.1931024 0.1089272 -0.006579787)
(0.1780247 0.09851163 0.02726541)
(0.1468838 0.08037895 0.05393513)
(0.1068402 0.05923702 0.07109496)
(0.06605225 0.03931619 0.07695475)
(0.03116154 0.02264348 0.07320576)
(0.007469256 0.009087488 0.06390517)
(-0.01146959 -4.730094e-05 0.04066399)
(-0.03154904 -0.003386401 0.03639185)
(-0.04720541 -0.005495406 0.03084315)
(-0.06284458 -0.007081994 0.02602073)
(-0.08170041 -0.008060661 0.01991151)
(-0.1074939 -0.007710286 0.0159292)
(-0.1263448 -0.002254515 -0.0148897)
(-0.0104477 -0.0005353625 -0.05148361)
(-0.01642597 -0.001042877 -0.05153118)
(-0.01735442 -0.001290024 -0.05208114)
(-0.01557425 -0.001364641 -0.05374382)
(-0.0110289 -0.001322749 -0.05787873)
(-0.001935776 -0.0006363702 -0.06314913)
(0.00841243 0.005674783 -0.08224652)
(0.01621225 0.01593714 -0.1069043)
(0.02793029 0.0241401 -0.1208609)
(0.04720365 0.03234575 -0.1292334)
(0.07078358 0.04154707 -0.1314839)
(0.09758335 0.05212365 -0.1271353)
(0.1264126 0.06403053 -0.1158563)
(0.1552977 0.07661428 -0.0973715)
(0.1811322 0.0882634 -0.07196586)
(0.199338 0.09612539 -0.04096542)
(0.2037162 0.09641012 -0.006455238)
(0.1883791 0.08670335 0.02768115)
(0.1571038 0.07061283 0.05471028)
(0.1165465 0.05214641 0.07230627)
(0.07435046 0.03478609 0.07837163)
(0.03698226 0.02026635 0.07430341)
(0.009780116 0.008757661 0.06429468)
(-0.01331583 0.0005951271 0.04020061)
(-0.03761753 -0.002502832 0.03530005)
(-0.05721643 -0.004381445 0.02903226)
(-0.07638044 -0.005706025 0.02358749)
(-0.09812819 -0.006418656 0.01706613)
(-0.1257074 -0.006019654 0.01383733)
(-0.1415738 -0.002001519 -0.01791303)
(-0.01134486 -0.0003371844 -0.05245108)
(-0.01808488 -0.0006897381 -0.05240546)
(-0.01921462 -0.0008857785 -0.05302153)
(-0.01708247 -0.0009436956 -0.05507456)
(-0.01140847 -0.0008510706 -0.05999957)
(0.001928592 0.0002358073 -0.06577445)
(0.009454624 0.007496102 -0.09766816)
(0.01731046 0.01558274 -0.1141838)
(0.03351666 0.02232623 -0.1268533)
(0.05454531 0.02952234 -0.1343081)
(0.07923537 0.03770859 -0.1354074)
(0.1068054 0.04700485 -0.1299402)
(0.1360383 0.05736572 -0.1176047)
(0.1650419 0.06825916 -0.09824166)
(0.1908591 0.07831301 -0.07219643)
(0.2089712 0.08495603 -0.04077723)
(0.2130574 0.08467032 -0.005918243)
(0.19749 0.07560067 0.02838501)
(0.1663557 0.06140652 0.05552072)
(0.1257751 0.04549507 0.0731464)
(0.08275705 0.03067345 0.0789811)
(0.04348157 0.01830122 0.0743705)
(0.01326879 0.00845756 0.06363801)
(-0.01347515 0.001016834 0.03916867)
(-0.0414735 -0.00169568 0.03373706)
(-0.06441984 -0.003257362 0.02699582)
(-0.08635901 -0.004303527 0.02125776)
(-0.110079 -0.004809012 0.01470193)
(-0.1385794 -0.00443579 0.01220996)
(-0.1520223 -0.001587184 -0.0198481)
(-0.01189118 -0.0002094808 -0.05297408)
(-0.01911824 -0.0004534987 -0.05286893)
(-0.02035362 -0.0006244242 -0.053534)
(-0.01788357 -0.0007203897 -0.05580937)
(-0.01139503 -0.0005564985 -0.06105429)
(0.003574853 0.001396978 -0.06705351)
(0.01269091 0.007776887 -0.1005865)
(0.02182912 0.01421357 -0.117023)
(0.0394864 0.02020599 -0.1300923)
(0.06161546 0.02659238 -0.1371497)
(0.08717087 0.0337266 -0.1375928)
(0.1152786 0.04178371 -0.1313705)
(0.1447257 0.05072647 -0.1182974)
(0.17373 0.06012103 -0.09831215)
(0.1994937 0.06879384 -0.07179829)
(0.2175037 0.07439933 -0.04004428)
(0.2211998 0.0736311 -0.004818205)
(0.2053733 0.06522467 0.02953836)
(0.1745949 0.05291264 0.0566003)
(0.1344313 0.03953147 0.07402207)
(0.09117607 0.02721228 0.0794451)
(0.05063537 0.01686554 0.07426433)
(0.01804087 0.008379255 0.06289891)
(-0.0118548 0.001430769 0.03825167)
(-0.04311954 -0.000946883 0.03238163)
(-0.06889848 -0.002201737 0.02529516)
(-0.09305651 -0.003001649 0.01941687)
(-0.1182202 -0.003364737 0.0129606)
(-0.1472923 -0.003075269 0.01108546)
(-0.1590304 -0.001154866 -0.02108292)
(-0.01221096 -0.0001338615 -0.05328361)
(-0.01973285 -0.0003175575 -0.05317625)
(-0.02100263 -0.0005158816 -0.05396273)
(-0.01815668 -0.0008047747 -0.05655904)
(-0.01089861 -0.001120561 -0.06196485)
(0.005034523 0.002097655 -0.06916777)
(0.01552403 0.00883991 -0.1028852)
(0.02600709 0.01374423 -0.1194615)
(0.04489696 0.0185279 -0.1323094)
(0.0680237 0.02379777 -0.1388594)
(0.09430131 0.02980148 -0.1386916)
(0.1228171 0.03662865 -0.1318414)
(0.1523912 0.04422501 -0.1181874)
(0.1813728 0.05223382 -0.09771987)
(0.2071243 0.05965479 -0.07082045)
(0.2250635 0.06434615 -0.03874049)
(0.2282461 0.0632006 -0.003056459)
(0.2120934 0.05557131 0.03127232)
(0.1818329 0.04519682 0.05815494)
(0.1424437 0.03434114 0.0752743)
(0.09943881 0.02446467 0.08026844)
(0.05819811 0.01600576 0.07458376)
(0.0238399 0.008640196 0.06267474)
(-0.008705914 0.001936577 0.0378167)
(-0.04289172 -0.0003025864 0.03148777)
(-0.0710568 -0.001296028 0.02412414)
(-0.09702452 -0.001887884 0.0181437)
(-0.1233223 -0.002153895 0.01179469)
(-0.1528299 -0.001968079 0.01035569)
(-0.1635165 -0.0007691621 -0.02187095)
(-0.01239252 -8.541479e-05 -0.05349416)
(-0.02009246 -0.0002197493 -0.05345181)
(-0.02137081 -0.0004001555 -0.05452056)
(-0.01811213 -0.0007661618 -0.05794509)
(-0.009476923 -0.001268444 -0.06341668)
(0.005595515 0.00280199 -0.07803372)
(0.01673523 0.009176125 -0.1068067)
(0.02933447 0.01284773 -0.1227323)
(0.04949562 0.01656542 -0.1344025)
(0.07357142 0.02088245 -0.1400707)
(0.1004766 0.02585036 -0.1391869)
(0.1293288 0.03152119 -0.1317263)
(0.1590055 0.03784612 -0.117555)
(0.1879985 0.04454239 -0.09666233)
(0.213823 0.05077764 -0.06938851)
(0.2317402 0.05463616 -0.03692407)
(0.2342772 0.05326682 -0.0006377236)
(0.2177383 0.04661626 0.0336086)
(0.1881174 0.03825476 0.06028012)
(0.1497399 0.02987948 0.07712359)
(0.1072907 0.02234877 0.08181651)
(0.06572575 0.01567824 0.07578464)
(0.03011325 0.009269011 0.06341222)
(-0.004522699 0.002458623 0.03816807)
(-0.04131367 0.0001373726 0.031123)
(-0.07143258 -0.0006162474 0.02352766)
(-0.09888591 -0.001013824 0.01740598)
(-0.1261113 -0.001200713 0.01110084)
(-0.1560046 -0.001112303 0.009933272)
(-0.166121 -0.0004420943 -0.02231198)
(-0.01248093 -5.305543e-05 -0.05363063)
(-0.02025267 -0.0001431444 -0.05364335)
(-0.02148589 -0.0002698859 -0.05494251)
(-0.01791355 -0.000541316 -0.05883129)
(-0.007153665 -0.0007811104 -0.06411729)
(0.00636414 0.003262938 -0.08783004)
(0.01725267 0.008340655 -0.1099029)
(0.032536 0.01127617 -0.1248657)
(0.05355919 0.01429192 -0.1358252)
(0.07825353 0.01781338 -0.1407442)
(0.1056528 0.02183824 -0.1392624)
(0.1347881 0.02642145 -0.1312675)
(0.164569 0.03152969 -0.1166342)
(0.1936237 0.03694434 -0.09534525)
(0.2196014 0.04199935 -0.06768239)
(0.2375325 0.04507297 -0.03475809)
(0.2393314 0.04371 0.002255258)
(0.2224243 0.03830934 0.03638071)
(0.1935417 0.03200012 0.06289231)
(0.1562661 0.02596425 0.0796278)
(0.1144321 0.02062584 0.08432972)
(0.07262155 0.01572306 0.07825755)
(0.03602105 0.01035241 0.06551867)
(-0.000190825 0.002985874 0.03962198)
(-0.03889778 0.0001627772 0.03144394)
(-0.07054602 -0.0002371119 0.02353831)
(-0.09923151 -0.0004049407 0.0171564)
(-0.1272199 -0.0005002354 0.01079306)
(-0.1574604 -0.0004760353 0.009745744)
(-0.1673513 -0.000189706 -0.02250506)
(-0.01251905 -3.426827e-05 -0.05372964)
(-0.02031004 -9.812936e-05 -0.05380545)
(-0.02147091 -0.000202127 -0.05530685)
(-0.01759224 -0.0003937144 -0.05966495)
(-0.005530959 -0.0004861216 -0.06485571)
(0.007061502 0.002811112 -0.09332868)
(0.018004 0.007013607 -0.1121133)
(0.03494021 0.009550548 -0.1267881)
(0.05670869 0.01195882 -0.1369996)
(0.08197599 0.01465622 -0.1412405)
(0.1097978 0.0177541 -0.1391939)
(0.1391829 0.0212832 -0.1307081)
(0.1690746 0.02520127 -0.1156534)
(0.1982177 0.02932979 -0.09399392)
(0.224367 0.03316683 -0.06594939)
(0.2423084 0.03548996 -0.03254672)
(0.2434083 0.0344392 0.005198788)
(0.2263071 0.03056125 0.03919011)
(0.198267 0.02623221 0.06567916)
(0.1620649 0.02220995 0.08261383)
(0.1206765 0.01869047 0.08782266)
(0.07832598 0.01539672 0.08236505)
(0.0404139 0.01133535 0.06969699)
(0.003147262 0.003733274 0.04427441)
(-0.03599171 -7.287803e-05 0.03263689)
(-0.06886191 -6.642968e-05 0.02431377)
(-0.09860397 -9.43744e-06 0.01736705)
(-0.1271924 -1.96757e-05 0.01080304)
(-0.1577214 -3.210886e-05 0.009739185)
(-0.1676052 -8.406573e-06 -0.02252174)
(-0.01253035 -2.079684e-05 -0.05380212)
(-0.02031023 -5.884163e-05 -0.05393635)
(-0.02137913 -0.000115274 -0.05559558)
(-0.01716041 -0.0001664366 -0.06030346)
(-0.00419137 7.307159e-05 -0.06571238)
(0.007608622 0.002117441 -0.09658588)
(0.01849196 0.005030022 -0.1140209)
(0.03646783 0.007332217 -0.1283749)
(0.05894431 0.009281062 -0.1379784)
(0.08473865 0.01128454 -0.1416556)
(0.1129194 0.01352997 -0.1391162)
(0.1425102 0.01605421 -0.1302141)
(0.1724904 0.01880806 -0.1148095)
(0.2016887 0.0216428 -0.09284838)
(0.2279331 0.024229 -0.06450026)
(0.245853 0.02584749 -0.03072017)
(0.2465183 0.02541486 0.007576392)
(0.2295727 0.02324595 0.04145147)
(0.2025252 0.02071992 0.06805713)
(0.1674295 0.0182598 0.08544037)
(0.1264637 0.01597073 0.09148829)
(0.08346327 0.01381161 0.08707827)
(0.04352579 0.01106984 0.07487535)
(0.005666162 0.004499402 0.05196298)
(-0.03238252 -0.0001511685 0.03414771)
(-0.06674836 8.075989e-05 0.02557442)
(-0.09740968 0.000259116 0.01787251)
(-0.1264584 0.0002815434 0.01101469)
(-0.1572141 0.0002431272 0.009848957)
(-0.1672153 0.0001067112 -0.02242463)
(-0.01252673 -1.144351e-05 -0.05384551)
(-0.02027383 -2.950985e-05 -0.05400609)
(-0.0212365 -4.535773e-05 -0.05571457)
(-0.01677893 2.386495e-05 -0.06044518)
(-0.003738072 0.0005118758 -0.06604182)
(0.008603192 0.001176072 -0.09589501)
(0.01969435 0.002910603 -0.1144943)
(0.03765189 0.004934172 -0.1289486)
(0.06048714 0.006416996 -0.1384992)
(0.08663017 0.00775885 -0.1419074)
(0.1150584 0.009198181 -0.1390626)
(0.1447759 0.01075997 -0.1298858)
(0.174781 0.01237934 -0.1142596)
(0.2039469 0.01393012 -0.09213095)
(0.2301541 0.01526235 -0.06364609)
(0.2480328 0.01622118 -0.02971548)
(0.248701 0.01660282 0.008799163)
(0.2323263 0.01621808 0.04262934)
(0.2064026 0.01532995 0.06945347)
(0.1724973 0.01409444 0.08740055)
(0.1321667 0.01256985 0.09433358)
(0.08878111 0.01089546 0.09091753)
(0.0458643 0.008855109 0.07970539)
(0.008046282 0.004667197 0.06310296)
(-0.0278285 0.0002945472 0.03543784)
(-0.06460617 0.0003104233 0.02683352)
(-0.09599382 0.000411903 0.01844776)
(-0.1253789 0.0004138304 0.01129483)
(-0.1563071 0.0003575996 0.0100063)
(-0.1664731 0.0001554212 -0.02227146)
(-0.01252151 -6.644011e-06 -0.05387161)
(-0.02024248 -1.860157e-05 -0.0540477)
(-0.02112311 -3.773599e-05 -0.05575721)
(-0.01643908 3.001265e-05 -0.06041209)
(-0.00374483 0.0003805707 -0.06645167)
(0.009337161 0.0002774615 -0.09318626)
(0.02069965 0.001378131 -0.114635)
(0.03814722 0.002743745 -0.1291894)
(0.06131155 0.003581929 -0.1388223)
(0.08771083 0.004198496 -0.1421165)
(0.1162687 0.004849662 -0.1390965)
(0.1460133 0.005494975 -0.1297879)
(0.1759537 0.006032141 -0.114093)
(0.2049663 0.006345873 -0.09197474)
(0.2309718 0.00645477 -0.06358813)
(0.2487934 0.006768401 -0.02982795)
(0.2499707 0.007968268 0.008471248)
(0.2345594 0.009315615 0.04237199)
(0.2097709 0.009955969 0.06951564)
(0.1769635 0.009820866 0.08810956)
(0.1372886 0.008944509 0.09575137)
(0.09398301 0.007565896 0.0927702)
(0.05051719 0.005778414 0.081399)
(0.01193349 0.003189424 0.06500898)
(-0.02516215 0.0006745662 0.03613265)
(-0.06281395 0.0004270025 0.02753572)
(-0.09467492 0.0003958446 0.01884206)
(-0.1243108 0.0003701276 0.01153434)
(-0.1553699 0.0003141074 0.01015092)
(-0.1656933 0.0001351786 -0.02212017)
(-0.01252147 -1.986353e-06 -0.05388641)
(-0.02023827 -5.717631e-06 -0.05407947)
(-0.02108271 -1.240407e-05 -0.05579005)
(-0.0162711 -1.895018e-05 -0.06050988)
(-0.004704554 -3.02955e-06 -0.06679983)
(0.009802021 0.0001087658 -0.08751499)
(0.02201248 0.0003164691 -0.1142441)
(0.0381112 0.000486739 -0.1296185)
(0.0614414 0.0005712881 -0.139081)
(0.08803247 0.0005893338 -0.1423146)
(0.1166125 0.0005321914 -0.1392179)
(0.1463023 0.0003291451 -0.1299003)
(0.1761066 -0.0001438846 -0.1142734)
(0.204854 -0.0009972631 -0.09233475)
(0.2304787 -0.002067466 -0.06430579)
(0.2481885 -0.002436349 -0.03112512)
(0.2503222 -0.0006115635 0.006411353)
(0.2362128 0.002312536 0.04047729)
(0.2124767 0.004407571 0.06806848)
(0.1804992 0.005372358 0.08746336)
(0.1412141 0.005242612 0.09590318)
(0.09785103 0.004430178 0.09335798)
(0.05398465 0.003288492 0.08203235)
(0.01469893 0.001889814 0.06557266)
(-0.02335066 0.0005185886 0.03653867)
(-0.06159433 0.0002751742 0.02788243)
(-0.09377972 0.0002133711 0.01906264)
(-0.1235901 0.0001814783 0.0116784)
(-0.1547417 0.0001455763 0.01023953)
(-0.1651765 5.818952e-05 -0.02202295)
(-0.01252459 3.294466e-06 -0.05388078)
(-0.0202452 1.022211e-05 -0.05406385)
(-0.02110793 2.329609e-05 -0.05579202)
(-0.01635671 -4.048083e-05 -0.06049015)
(-0.003581125 -0.0003339393 -0.06662205)
(0.00930149 -4.853129e-05 -0.09350054)
(0.02052052 -0.0008206205 -0.1149689)
(0.03800666 -0.001842262 -0.1294671)
(0.06124816 -0.002460934 -0.1390523)
(0.08766423 -0.00298467 -0.1423269)
(0.1161538 -0.003688255 -0.1393411)
(0.1457395 -0.004659978 -0.1301501)
(0.1753731 -0.006025667 -0.1146997)
(0.2037906 -0.007868509 -0.09305053)
(0.2289003 -0.009903191 -0.06553578)
(0.2463995 -0.01091151 -0.03318985)
(0.2496878 -0.00895199 0.003129717)
(0.2371346 -0.004986803 0.03719694)
(0.2143685 -0.001594212 0.06521073)
(0.1828947 0.0005413737 0.08548529)
(0.1436255 0.00131807 0.09484601)
(0.09994524 0.001261123 0.09288334)
(0.05565437 0.0009320184 0.08182959)
(0.01590643 0.0005512197 0.06550786)
(-0.02261939 0.0001470552 0.03657293)
(-0.06116013 1.268504e-05 0.02792598)
(-0.09351977 -4.213085e-05 0.01908973)
(-0.1234291 -6.691491e-05 0.01169213)
(-0.1546369 -7.268927e-05 0.01024489)
(-0.1651165 -4.099275e-05 -0.02201315)
(-0.01253241 8.713945e-06 -0.05386053)
(-0.02027675 2.60653e-05 -0.05402829)
(-0.02120515 5.33014e-05 -0.05575503)
(-0.01664745 4.175818e-05 -0.060527)
(-0.003515936 -0.0002614778 -0.06624139)
(0.008680784 -0.0009730374 -0.09612072)
(0.01960636 -0.002612309 -0.1148372)
(0.03758311 -0.004177562 -0.129277)
(0.06051652 -0.005300178 -0.13881)
(0.08666633 -0.006402842 -0.1422305)
(0.1149631 -0.007737102 -0.1394672)
(0.1443929 -0.009427862 -0.1305045)
(0.1738426 -0.0115998 -0.1153095)
(0.2019263 -0.01428756 -0.09399712)
(0.2265017 -0.0170947 -0.0670094)
(0.2437436 -0.01865929 -0.03546774)
(0.2481012 -0.01688719 -0.0004122417)
(0.2370732 -0.01236928 0.03344112)
(0.2151379 -0.007984306 0.06164955)
(0.183888 -0.004748307 0.08260182)
(0.1443131 -0.002943691 0.09280875)
(0.1000897 -0.002074426 0.09149048)
(0.05537051 -0.001469391 0.08085812)
(0.01540945 -0.0008189849 0.06483806)
(-0.0230803 -0.0002465674 0.0362281)
(-0.06156649 -0.0002351481 0.02768553)
(-0.09392416 -0.0002617151 0.0189331)
(-0.1238414 -0.0002697112 0.01157987)
(-0.155061 -0.0002456463 0.01016895)
(-0.1655141 -0.0001172468 -0.02209054)
(-0.01254075 1.540242e-05 -0.05382111)
(-0.02031502 4.79807e-05 -0.05395224)
(-0.02132959 0.0001071345 -0.05559226)
(-0.01700331 0.000208576 -0.06021337)
(-0.004225075 0.0001440124 -0.06577342)
(0.008160644 -0.001993589 -0.09512286)
(0.01914576 -0.004735994 -0.1138594)
(0.03674594 -0.006507445 -0.1283998)
(0.05924392 -0.008006389 -0.1382043)
(0.08502326 -0.009651816 -0.1419835)
(0.1130429 -0.01161289 -0.1395728)
(0.1422798 -0.01401055 -0.130935)
(0.1715621 -0.01694355 -0.1160502)
(0.1993858 -0.02037976 -0.09507668)
(0.2235471 -0.02382475 -0.06854526)
(0.2405779 -0.02588148 -0.03764224)
(0.2457591 -0.02449292 -0.003640716)
(0.2359854 -0.01979738 0.02990609)
(0.2146357 -0.01463802 0.05813779)
(0.1832985 -0.01033594 0.07950415)
(0.1431391 -0.007429752 0.09031833)
(0.0982393 -0.005552287 0.08955932)
(0.05317374 -0.003950812 0.07940512)
(0.01331226 -0.002145058 0.06377659)
(-0.02461662 -0.0005437121 0.03562161)
(-0.06268399 -0.0003706564 0.02724595)
(-0.09483224 -0.0003564949 0.01865445)
(-0.1246412 -0.0003426012 0.01138962)
(-0.155811 -0.000299633 0.01004381)
(-0.1661776 -0.0001377261 -0.02222087)
(-0.01254467 2.369774e-05 -0.05376297)
(-0.0203462 7.169251e-05 -0.05383922)
(-0.02145465 0.0001558416 -0.05532294)
(-0.01743568 0.0003017331 -0.05961001)
(-0.005770776 0.0002815373 -0.0649965)
(0.007940503 -0.002288634 -0.09053176)
(0.01921242 -0.006075653 -0.1118438)
(0.03548627 -0.008416064 -0.1268991)
(0.05734316 -0.01045565 -0.1372837)
(0.08267278 -0.01269309 -0.1416133)
(0.1103643 -0.01531679 -0.1396616)
(0.1393935 -0.01844317 -0.1314191)
(0.1685462 -0.0221394 -0.1168767)
(0.1962172 -0.02630007 -0.0962176)
(0.220133 -0.03034414 -0.07003336)
(0.2370448 -0.03287666 -0.03955899)
(0.2428023 -0.03193924 -0.006305358)
(0.233912 -0.02726671 0.0269519)
(0.2128327 -0.02149898 0.05509075)
(0.181101 -0.0161869 0.07661532)
(0.140148 -0.0121603 0.08774313)
(0.09454646 -0.009285289 0.08737458)
(0.04932624 -0.006723355 0.07773198)
(0.009958057 -0.003423432 0.0625393)
(-0.02692688 -0.0005386769 0.03492554)
(-0.06425246 -0.0002929426 0.02670641)
(-0.09595791 -0.0002648521 0.01833803)
(-0.1255198 -0.0002378886 0.01119173)
(-0.1565656 -0.0001986494 0.00991643)
(-0.166819 -9.093756e-05 -0.02235268)
(-0.01253482 3.515471e-05 -0.0536856)
(-0.02035027 0.0001000915 -0.0537011)
(-0.02155563 0.0001999188 -0.05502974)
(-0.01785874 0.0003479421 -0.05901537)
(-0.006881902 0.0002885513 -0.06426007)
(0.007009916 -0.002557584 -0.0883294)
(0.01807781 -0.006921606 -0.1101394)
(0.03358643 -0.009912016 -0.1253137)
(0.054794 -0.0126149 -0.1362338)
(0.07958213 -0.01552859 -0.1411387)
(0.1068915 -0.01887906 -0.1397102)
(0.1357048 -0.02278814 -0.1319105)
(0.1647745 -0.02729307 -0.1177261)
(0.1924068 -0.03221618 -0.09734469)
(0.2162459 -0.03689449 -0.0713946)
(0.2331407 -0.03992902 -0.0411548)
(0.2392788 -0.03944599 -0.008354634)
(0.2309089 -0.03485254 0.02469187)
(0.2097885 -0.02853628 0.05267352)
(0.177428 -0.02223087 0.07410803)
(0.1356467 -0.01710716 0.08514654)
(0.08957226 -0.013417 0.08474064)
(0.04470121 -0.01022984 0.07547703)
(0.006016 -0.004851461 0.06015227)
(-0.02972245 0.0001140486 0.03419223)
(-0.06595947 0.0001226354 0.0260293)
(-0.09695233 5.214437e-05 0.01803673)
(-0.1261146 6.515813e-05 0.01105411)
(-0.1569626 6.901002e-05 0.009834183)
(-0.1671349 2.297754e-05 -0.02243243)
(-0.01249781 5.473003e-05 -0.05358597)
(-0.02029833 0.0001499328 -0.05354291)
(-0.0215874 0.0002936207 -0.05470497)
(-0.01818193 0.0006084144 -0.05835507)
(-0.00781451 0.0009876974 -0.06373523)
(0.005611665 -0.003115612 -0.08623655)
(0.0161233 -0.008450833 -0.1086025)
(0.03087813 -0.01156208 -0.1236408)
(0.05146761 -0.01466785 -0.1350693)
(0.0756857 -0.01824856 -0.140567)
(0.1025767 -0.02237105 -0.139679)
(0.1311692 -0.02712926 -0.1323413)
(0.1602001 -0.03251939 -0.1185157)
(0.1878975 -0.03828908 -0.09837371)
(0.2118066 -0.04368683 -0.07256114)
(0.2287776 -0.04727828 -0.04240184)
(0.2351587 -0.04722346 -0.009817632)
(0.2270065 -0.04265655 0.02310348)
(0.2055971 -0.03571921 0.05087499)
(0.1725261 -0.02827441 0.0719321)
(0.1302026 -0.02180593 0.08222897)
(0.08461147 -0.01688354 0.08070839)
(0.04314433 -0.01244991 0.07023645)
(0.00445552 -0.004398958 0.04785616)
(-0.03406998 0.0007118698 0.03296384)
(-0.06752609 0.0005997982 0.02493845)
(-0.09742142 0.0005356032 0.01773913)
(-0.1260326 0.000558254 0.01103751)
(-0.1566233 0.0005065749 0.009842732)
(-0.1668279 0.0002017049 -0.02240846)
(-0.01240552 8.47958e-05 -0.05344184)
(-0.020123 0.000216636 -0.05332367)
(-0.02144346 0.0003922161 -0.05416997)
(-0.01842079 0.0007421426 -0.05701941)
(-0.01072123 0.001244896 -0.06238144)
(0.005576044 -0.002466558 -0.07129656)
(0.01678721 -0.008837007 -0.1040565)
(0.02805088 -0.01267765 -0.1206723)
(0.04749994 -0.01651139 -0.133253)
(0.0710039 -0.02086466 -0.1396556)
(0.09739522 -0.02584639 -0.139403)
(0.125741 -0.0315453 -0.1325709)
(0.1547621 -0.03792514 -0.119118)
(0.1826075 -0.04465892 -0.09919592)
(0.2067035 -0.05089294 -0.07345636)
(0.2238288 -0.05511387 -0.04327031)
(0.230361 -0.05544948 -0.01072101)
(0.2221915 -0.05078007 0.02216473)
(0.2002975 -0.04301978 0.04974044)
(0.1664784 -0.03409407 0.07031122)
(0.1238478 -0.02571132 0.07973072)
(0.07902576 -0.01867642 0.07702704)
(0.03981387 -0.01216826 0.06593624)
(0.002240582 -0.003390196 0.04060196)
(-0.03679275 0.0004556964 0.03206195)
(-0.068419 0.0008929054 0.02427762)
(-0.09698388 0.001116717 0.01778653)
(-0.1248603 0.001234404 0.01128277)
(-0.1551289 0.00112252 0.01001189)
(-0.1655696 0.0004455611 -0.02221721)
(-0.0122269 0.0001291809 -0.05324366)
(-0.01977855 0.0002970459 -0.05308609)
(-0.02110852 0.0004478321 -0.05375211)
(-0.01843691 0.0005866623 -0.0561148)
(-0.01144875 0.0005479266 -0.06147138)
(0.0043138 -0.001824756 -0.06777198)
(0.01443328 -0.007753531 -0.1015258)
(0.02448589 -0.01295758 -0.1181857)
(0.04288895 -0.01799155 -0.131411)
(0.06552082 -0.023345 -0.1384353)
(0.09131986 -0.02933269 -0.1387655)
(0.1193784 -0.03609654 -0.1324377)
(0.148398 -0.04359536 -0.1193735)
(0.1764453 -0.05143551 -0.0996781)
(0.2008107 -0.05864524 -0.0739893)
(0.2181483 -0.06358477 -0.0437194)
(0.2247669 -0.06428068 -0.01107371)
(0.2163887 -0.05935435 0.02186858)
(0.1938204 -0.05052923 0.04933758)
(0.1591492 -0.0397906 0.06952041)
(0.1162124 -0.02910743 0.07835238)
(0.07205752 -0.019704 0.07521058)
(0.03432356 -0.01131051 0.06426143)
(-0.001347687 -0.00281662 0.03933754)
(-0.03840973 0.0002899468 0.03218646)
(-0.06817187 0.001327728 0.02464186)
(-0.09518341 0.001887208 0.01842247)
(-0.1221076 0.002135685 0.01193844)
(-0.1519812 0.001947521 0.01042158)
(-0.1629802 0.0007605485 -0.02178079)
(-0.01190974 0.0002061135 -0.05294786)
(-0.01917377 0.0004399422 -0.05281259)
(-0.02047508 0.0005851247 -0.05341433)
(-0.01813742 0.0006240925 -0.05558725)
(-0.01185419 0.0003921315 -0.06079492)
(0.002701876 -0.001184392 -0.06660279)
(0.01148902 -0.006974103 -0.09990489)
(0.02027602 -0.01347974 -0.1162861)
(0.03751599 -0.01958534 -0.1294412)
(0.05921739 -0.02592964 -0.1367424)
(0.08435757 -0.03295739 -0.1375276)
(0.1120731 -0.04086153 -0.1316975)
(0.1410654 -0.04959515 -0.1190693)
(0.1693259 -0.05869176 -0.09965927)
(0.1939995 -0.06703377 -0.07406066)
(0.2115794 -0.07280121 -0.04371374)
(0.2182299 -0.07384897 -0.01090592)
(0.2094902 -0.06852194 0.02213835)
(0.186098 -0.05841262 0.04955883)
(0.1505384 -0.04563875 0.06942408)
(0.1074383 -0.03255049 0.07787987)
(0.06420108 -0.02090879 0.07465516)
(0.02831987 -0.01101733 0.06406993)
(-0.004812276 -0.002383849 0.03944296)
(-0.03888799 0.0006915075 0.03302924)
(-0.0662672 0.002086798 0.02571817)
(-0.09139526 0.002921755 0.01964848)
(-0.1171298 0.003301297 0.01308531)
(-0.1465345 0.003028256 0.01114574)
(-0.1585558 0.00113496 -0.02100044)
(-0.01136088 0.000337225 -0.05243172)
(-0.01813342 0.0006892637 -0.05236478)
(-0.01931797 0.0008849912 -0.0529376)
(-0.01729491 0.0009536602 -0.05492129)
(-0.01186456 0.0008876119 -0.05982299)
(0.001053124 4.140617e-05 -0.06532579)
(0.008573355 -0.006604584 -0.09723231)
(0.01604341 -0.01486766 -0.1133268)
(0.03182582 -0.02174502 -0.1261987)
(0.05238309 -0.02883306 -0.1337654)
(0.07669235 -0.03679341 -0.1351137)
(0.1039205 -0.04584631 -0.1299391)
(0.132779 -0.055916 -0.117921)
(0.1611907 -0.0664338 -0.09896012)
(0.1861501 -0.07609192 -0.07358061)
(0.2039644 -0.08282621 -0.04324177)
(0.2105959 -0.08424345 -0.0102852)
(0.2013935 -0.07838495 0.02283228)
(0.1771225 -0.06678581 0.05018282)
(0.1407897 -0.05180373 0.06971322)
(0.09786309 -0.03626266 0.07786693)
(0.05603947 -0.02244279 0.07469864)
(0.02264868 -0.01105868 0.06451231)
(-0.007258623 -0.001960518 0.04009605)
(-0.03777237 0.001330121 0.03437333)
(-0.06218412 0.003059118 0.02737621)
(-0.08497128 0.004172289 0.0214684)
(-0.109179 0.004715079 0.01481976)
(-0.1379607 0.004371113 0.01226849)
(-0.1516471 0.001561152 -0.01977969)
(-0.0104569 0.0005373541 -0.05146477)
(-0.01645433 0.001049465 -0.05149157)
(-0.01741463 0.001306148 -0.05199159)
(-0.01571984 0.00140927 -0.05359089)
(-0.01142404 0.001499934 -0.05756292)
(-0.001582811 0.001146326 -0.06254514)
(0.00727685 -0.005789106 -0.08671021)
(0.01411588 -0.01578473 -0.1066362)
(0.02665653 -0.02366521 -0.1198238)
(0.04546963 -0.03157658 -0.1283896)
(0.0686018 -0.04052462 -0.130841)
(0.09508682 -0.05081969 -0.1267435)
(0.1236047 -0.062396 -0.1156884)
(0.1520142 -0.07456925 -0.09746354)
(0.1771639 -0.0857912 -0.07252062)
(0.1951616 -0.09368168 -0.04234242)
(0.2017265 -0.09551543 -0.009318091)
(0.1920254 -0.08899443 0.02377666)
(0.1669418 -0.0756837 0.05094621)
(0.130113 -0.05831469 0.07001034)
(0.08784976 -0.0402672 0.07778438)
(0.04804866 -0.02426506 0.07468358)
(0.01781624 -0.01127778 0.06498846)
(-0.008206228 -0.001514087 0.04092123)
(-0.03464116 0.002071854 0.03587982)
(-0.05547196 0.004133335 0.02938095)
(-0.07532171 0.005546676 0.02378793)
(-0.09745445 0.006310615 0.01718194)
(-0.1252548 0.005948341 0.0138952)
(-0.1413132 0.00197574 -0.01785634)
(-0.009058972 0.0008121793 -0.04960414)
(-0.01395957 0.00149608 -0.04972461)
(-0.0146335 0.001779209 -0.05009227)
(-0.01332883 0.001848477 -0.05119288)
(-0.0102878 0.001846561 -0.05417262)
(-0.004038506 0.001443379 -0.05835584)
(0.006204689 -0.003666823 -0.07182089)
(0.01252613 -0.01479228 -0.09700269)
(0.02143534 -0.02455977 -0.110936)
(0.03846497 -0.03358179 -0.1205319)
(0.06028238 -0.04362047 -0.1245445)
(0.08575233 -0.05535517 -0.1220245)
(0.1136477 -0.06873532 -0.1123751)
(0.141819 -0.08292281 -0.09523581)
(0.1669953 -0.09606128 -0.07098118)
(0.1850856 -0.1053702 -0.04113362)
(0.1915431 -0.1076982 -0.008144533)