/*--------------------------------*- C++ -*----------------------------------*\
| =========                 |                                                 |
| \\      /  F ield         | OpenFOAM: The Open Source CFD Toolbox           |
|  \\    /   O peration     | Version:  2506                                  |
|   \\  /    A nd           | Website:  www.openfoam.com                      |
|    \\/     M anipulation  |                                                 |
\*---------------------------------------------------------------------------*/
FoamFile
{
    version     2.0;
    format      ascii;
    arch        "LSB;label=32;scalar=64";
    class       volScalarField;
    location    "2500/floor";
    object      T;
}
// * * * * * * * * * * * * * * * * * * * * * * * * * * * * * * * * * * * * * //

dimensions      [0 0 0 1 0 0 0];

internalField   nonuniform List<scalar> 
2700
(
301.3978
301.3993
301.4011
301.4028
301.4043
301.4057
301.4068
301.4079
301.4087
301.4095
301.4101
301.4105
301.4109
301.4111
301.4112
301.4112
301.4111
301.4109
301.4105
301.41
301.4094
301.4086
301.4077
301.4066
301.4054
301.404
301.4024
301.4007
301.3988
301.3972
301.3994
301.4009
301.4027
301.4043
301.4058
301.4071
301.4082
301.4092
301.4101
301.4108
301.4114
301.4118
301.4121
301.4124
301.4125
301.4125
301.4124
301.4121
301.4118
301.4113
301.4107
301.4099
301.409
301.408
301.4068
301.4054
301.4039
301.4022
301.4003
301.3988
301.4012
301.4027
301.4045
301.4061
301.4075
301.4088
301.4099
301.4108
301.4116
301.4123
301.4128
301.4133
301.4136
301.4138
301.4139
301.4139
301.4138
301.4136
301.4132
301.4128
301.4122
301.4115
301.4106
301.4096
301.4084
301.4071
301.4056
301.4039
301.4021
301.4006
301.4029
301.4044
301.4061
301.4077
301.4091
301.4103
301.4114
301.4123
301.4131
301.4137
301.4142
301.4146
301.4149
301.4151
301.4152
301.4152
301.4151
301.4149
301.4146
301.4141
301.4136
301.4129
301.412
301.4111
301.4099
301.4086
301.4072
301.4055
301.4038
301.4023
301.4045
301.4059
301.4076
301.4091
301.4105
301.4117
301.4127
301.4136
301.4143
301.4149
301.4154
301.4158
301.4161
301.4163
301.4164
301.4164
301.4163
301.4161
301.4157
301.4153
301.4148
301.4141
301.4133
301.4124
301.4113
301.41
301.4086
301.407
301.4053
301.4038
301.4059
301.4073
301.4089
301.4104
301.4117
301.4129
301.4139
301.4147
301.4154
301.416
301.4164
301.4168
301.4171
301.4173
301.4173
301.4173
301.4172
301.4171
301.4168
301.4164
301.4158
301.4152
301.4144
301.4135
301.4125
301.4112
301.4098
301.4083
301.4066
301.4052
301.4071
301.4085
301.4101
301.4115
301.4128
301.4139
301.4149
301.4157
301.4163
301.4169
301.4173
301.4177
301.4179
301.4181
301.4182
301.4182
301.4181
301.4179
301.4176
301.4172
301.4167
301.4161
301.4154
301.4145
301.4135
301.4123
301.4109
301.4094
301.4078
301.4064
301.4082
301.4095
301.4111
301.4125
301.4137
301.4148
301.4157
301.4165
301.4171
301.4177
301.4181
301.4184
301.4186
301.4188
301.4189
301.4189
301.4188
301.4186
301.4184
301.418
301.4175
301.4169
301.4162
301.4153
301.4143
301.4132
301.4119
301.4104
301.4088
301.4074
301.4091
301.4104
301.4119
301.4133
301.4145
301.4156
301.4164
301.4172
301.4178
301.4183
301.4187
301.419
301.4192
301.4194
301.4195
301.4195
301.4194
301.4192
301.419
301.4186
301.4182
301.4176
301.4169
301.4161
301.4151
301.414
301.4127
301.4112
301.4097
301.4083
301.41
301.4112
301.4126
301.414
301.4152
301.4162
301.417
301.4177
301.4183
301.4188
301.4192
301.4195
301.4197
301.4199
301.42
301.42
301.4199
301.4197
301.4195
301.4191
301.4187
301.4181
301.4175
301.4166
301.4157
301.4146
301.4133
301.4119
301.4104
301.409
301.4116
301.412
301.4133
301.4146
301.4157
301.4167
301.4175
301.4182
301.4188
301.4193
301.4196
301.4199
301.4201
301.4203
301.4203
301.4203
301.4203
301.4201
301.4199
301.4195
301.4191
301.4186
301.4179
301.4171
301.4161
301.415
301.4138
301.4124
301.4109
301.4096
301.4163
301.4133
301.4138
301.415
301.4161
301.4171
301.4179
301.4186
301.4191
301.4196
301.4199
301.4202
301.4204
301.4206
301.4206
301.4206
301.4206
301.4204
301.4202
301.4199
301.4194
301.4189
301.4181
301.4171
301.416
301.4148
301.4136
301.4122
301.4108
301.4097
301.4153
301.4136
301.4142
301.4153
301.4164
301.4174
301.4182
301.4188
301.4194
301.4198
301.4202
301.4204
301.4206
301.4208
301.4209
301.4209
301.4208
301.4206
301.4204
301.4201
301.4197
301.419
301.4178
301.4155
301.4132
301.4118
301.4104
301.4091
301.408
301.4078
301.4231
301.4158
301.4147
301.4156
301.4166
301.4176
301.4183
301.419
301.4195
301.42
301.4203
301.4206
301.4208
301.4209
301.421
301.421
301.4209
301.4208
301.4206
301.4202
301.4198
301.4189
301.4165
301.4105
301.4043
301.4018
301.3989
301.3976
301.3972
301.3986
301.4255
301.4166
301.415
301.4157
301.4167
301.4177
301.4184
301.4191
301.4196
301.4201
301.4204
301.4207
301.4209
301.421
301.4211
301.4211
301.421
301.4209
301.4206
301.4203
301.4199
301.4189
301.4161
301.4088
301.4013
301.3985
301.3955
301.394
301.3929
301.3926
301.4259
301.4167
301.415
301.4157
301.4167
301.4177
301.4184
301.4191
301.4196
301.4201
301.4204
301.4207
301.4209
301.421
301.4211
301.4211
301.421
301.4209
301.4206
301.4203
301.4199
301.4189
301.4159
301.4084
301.4008
301.398
301.3948
301.3933
301.3919
301.3908
301.4254
301.4165
301.4148
301.4156
301.4166
301.4176
301.4183
301.419
301.4195
301.42
301.4205
301.4206
301.4208
301.4209
301.421
301.421
301.4209
301.4208
301.4206
301.4202
301.4198
301.4188
301.4159
301.4083
301.4007
301.3979
301.3947
301.3931
301.3917
301.3904
301.4227
301.4156
301.4145
301.4154
301.4164
301.4174
301.4182
301.4188
301.4194
301.4201
301.4211
301.4207
301.4207
301.4208
301.4209
301.4209
301.4208
301.4206
301.4204
301.4201
301.4196
301.4187
301.4158
301.4085
301.4011
301.3982
301.3951
301.3935
301.392
301.3907
301.4138
301.4131
301.4138
301.415
301.4161
301.4171
301.4179
301.4186
301.4192
301.4205
301.4237
301.4212
301.4205
301.4206
301.4206
301.4206
301.4206
301.4204
301.4202
301.4199
301.4194
301.4185
301.4161
301.4101
301.4038
301.4013
301.3983
301.3968
301.3952
301.3939
301.4109
301.4119
301.4132
301.4145
301.4157
301.4167
301.4175
301.4182
301.4188
301.4195
301.4206
301.4201
301.4201
301.4203
301.4203
301.4203
301.4203
301.4201
301.4199
301.4195
301.4191
301.4184
301.4172
301.4148
301.4125
301.4111
301.4097
301.4082
301.4067
301.4054
301.4099
301.4112
301.4126
301.414
301.4152
301.4162
301.417
301.4177
301.4183
301.4188
301.4193
301.4195
301.4197
301.4199
301.4199
301.4199
301.4199
301.4197
301.4195
301.4191
301.4187
301.4181
301.4173
301.4162
301.4151
301.4139
301.4127
301.4113
301.41
301.4085
301.4091
301.4104
301.4119
301.4133
301.4145
301.4155
301.4164
301.4172
301.4178
301.4183
301.4187
301.419
301.4192
301.4194
301.4195
301.4195
301.4194
301.4192
301.4189
301.4186
301.4181
301.4176
301.4168
301.416
301.415
301.4139
301.4127
301.4117
301.4112
301.4089
301.4081
301.4095
301.4111
301.4125
301.4137
301.4148
301.4157
301.4165
301.4171
301.4176
301.418
301.4184
301.4186
301.4188
301.4189
301.4189
301.4188
301.4186
301.4183
301.418
301.4175
301.4169
301.4162
301.4153
301.4143
301.4132
301.4121
301.412
301.4141
301.4094
301.4071
301.4085
301.4101
301.4115
301.4128
301.4139
301.4148
301.4156
301.4163
301.4168
301.4173
301.4176
301.4179
301.4181
301.4181
301.4181
301.4181
301.4179
301.4176
301.4172
301.4167
301.4161
301.4153
301.4145
301.4134
301.4123
301.411
301.4099
301.4094
301.407
301.4059
301.4073
301.4089
301.4104
301.4117
301.4128
301.4138
301.4146
301.4154
301.4159
301.4164
301.4168
301.417
301.4172
301.4173
301.4173
301.4172
301.417
301.4167
301.4163
301.4158
301.4152
301.4144
301.4135
301.4124
301.4112
301.4098
301.4084
301.4069
301.4053
301.4045
301.4059
301.4076
301.4091
301.4105
301.4116
301.4127
301.4135
301.4143
301.4149
301.4154
301.4157
301.416
301.4162
301.4163
301.4163
301.4162
301.416
301.4157
301.4153
301.4147
301.4141
301.4133
301.4123
301.4112
301.41
301.4086
301.407
301.4053
301.4038
301.4029
301.4044
301.4061
301.4076
301.409
301.4103
301.4113
301.4122
301.413
301.4136
301.4142
301.4146
301.4149
301.4151
301.4152
301.4152
301.4151
301.4148
301.4145
301.4141
301.4135
301.4128
301.412
301.411
301.4099
301.4086
301.4071
301.4055
301.4037
301.4023
301.4012
301.4027
301.4044
301.406
301.4075
301.4087
301.4098
301.4108
301.4116
301.4122
301.4128
301.4132
301.4135
301.4137
301.4139
301.4139
301.4137
301.4135
301.4132
301.4127
301.4121
301.4114
301.4105
301.4095
301.4084
301.407
301.4055
301.4038
301.4021
301.4005
301.3993
301.4008
301.4026
301.4043
301.4057
301.4071
301.4082
301.4092
301.41
301.4107
301.4113
301.4117
301.4121
301.4123
301.4124
301.4124
301.4123
301.4121
301.4117
301.4112
301.4106
301.4099
301.409
301.4079
301.4067
301.4054
301.4038
301.4021
301.4003
301.3987
301.3977
301.3993
301.4011
301.4028
301.4043
301.4056
301.4068
301.4078
301.4087
301.4094
301.41
301.4105
301.4108
301.411
301.4112
301.4112
301.411
301.4108
301.4104
301.4099
301.4093
301.4085
301.4076
301.4065
301.4053
301.4039
301.4023
301.4006
301.3988
301.3972
300.7302
300.7334
300.737
300.7403
300.7432
300.7459
300.7481
300.7501
300.7518
300.7533
300.7544
300.7553
300.756
300.7565
300.7567
300.7567
300.7564
300.756
300.7552
300.7543
300.753
300.7515
300.7497
300.7476
300.7452
300.7424
300.7393
300.7359
300.7322
300.729
300.7334
300.7366
300.7401
300.7433
300.7462
300.7488
300.751
300.7529
300.7546
300.756
300.7571
300.758
300.7586
300.759
300.7593
300.7593
300.759
300.7586
300.7579
300.7569
300.7557
300.7542
300.7525
300.7504
300.748
300.7454
300.7423
300.7389
300.7353
300.7322
300.7371
300.7402
300.7436
300.7468
300.7496
300.7521
300.7542
300.7561
300.7577
300.759
300.76
300.7609
300.7615
300.7619
300.7621
300.7621
300.7619
300.7614
300.7608
300.7599
300.7587
300.7573
300.7556
300.7536
300.7513
300.7487
300.7457
300.7424
300.7389
300.7357
300.7405
300.7435
300.7469
300.75
300.7527
300.7551
300.7572
300.759
300.7605
300.7617
300.7627
300.7635
300.7641
300.7645
300.7647
300.7647
300.7645
300.764
300.7634
300.7625
300.7614
300.7601
300.7584
300.7565
300.7543
300.7517
300.7488
300.7456
300.7422
300.7391
300.7436
300.7465
300.7498
300.7528
300.7555
300.7578
300.7598
300.7615
300.7629
300.7641
300.7651
300.7658
300.7664
300.7668
300.7669
300.7669
300.7667
300.7663
300.7657
300.7649
300.7638
300.7625
300.7609
300.7591
300.7569
300.7544
300.7516
300.7485
300.7451
300.7421
300.7463
300.7492
300.7524
300.7553
300.7579
300.7601
300.7621
300.7637
300.7651
300.7662
300.7671
300.7678
300.7683
300.7687
300.7689
300.7689
300.7687
300.7683
300.7677
300.7669
300.7659
300.7646
300.7631
300.7613
300.7592
300.7568
300.7541
300.751
300.7477
300.7448
300.7487
300.7515
300.7547
300.7575
300.76
300.7622
300.764
300.7656
300.7669
300.768
300.7688
300.7695
300.77
300.7703
300.7705
300.7705
300.7703
300.77
300.7694
300.7686
300.7677
300.7664
300.765
300.7632
300.7612
300.7589
300.7563
300.7533
300.75
300.7471
300.7508
300.7536
300.7566
300.7594
300.7618
300.7639
300.7657
300.7672
300.7685
300.7695
300.7703
300.771
300.7714
300.7717
300.7719
300.7719
300.7717
300.7714
300.7708
300.7701
300.7692
300.768
300.7666
300.7649
300.7629
300.7607
300.7581
300.7552
300.752
300.7492
300.7526
300.7553
300.7583
300.761
300.7634
300.7654
300.7671
300.7686
300.7698
300.7708
300.7716
300.7722
300.7726
300.7729
300.7731
300.773
300.7729
300.7726
300.772
300.7713
300.7704
300.7693
300.7679
300.7663
300.7644
300.7622
300.7597
300.7568
300.7537
300.7509
300.7544
300.7568
300.7597
300.7624
300.7647
300.7666
300.7683
300.7697
300.7709
300.7718
300.7726
300.7731
300.7736
300.7739
300.774
300.774
300.7738
300.7735
300.773
300.7724
300.7715
300.7704
300.7691
300.7675
300.7656
300.7634
300.761
300.7582
300.7551
300.7524
300.7579
300.7585
300.7609
300.7635
300.7657
300.7676
300.7693
300.7706
300.7717
300.7727
300.7734
300.7739
300.7743
300.7746
300.7748
300.7748
300.7746
300.7743
300.7738
300.7732
300.7723
300.7712
300.7699
300.7683
300.7665
300.7643
300.7619
300.7592
300.7562
300.7535
300.7711
300.7614
300.762
300.7644
300.7665
300.7684
300.77
300.7713
300.7724
300.7733
300.774
300.7745
300.7749
300.7752
300.7754
300.7753
300.7752
300.7749
300.7744
300.7738
300.773
300.7719
300.7705
300.7685
300.7664
300.7642
300.7618
300.7591
300.7562
300.7538
300.7647
300.7614
300.7627
300.765
300.7671
300.769
300.7705
300.7718
300.7729
300.7738
300.7745
300.775
300.7754
300.7757
300.7758
300.7758
300.7756
300.7753
300.7749
300.7743
300.7734
300.7722
300.7702
300.7663
300.7621
300.7594
300.7562
300.7534
300.751
300.7498
300.7822
300.7655
300.7637
300.7655
300.7675
300.7694
300.7709
300.7722
300.7732
300.7741
300.7748
300.7753
300.7757
300.7759
300.7761
300.7761
300.7759
300.7756
300.7752
300.7746
300.7737
300.7722
300.7683
300.7588
300.747
300.7419
300.7323
300.729
300.7276
300.7288
300.7866
300.7668
300.7641
300.7657
300.7677
300.7696
300.7711
300.7723
300.7734
300.7742
300.7749
300.7754
300.7758
300.7761
300.7762
300.7762
300.7761
300.7758
300.7753
300.7747
300.7738
300.7722
300.7677
300.7562
300.7423
300.7366
300.7263
300.7227
300.7204
300.7192
300.7872
300.767
300.7641
300.7657
300.7677
300.7696
300.7711
300.7723
300.7734
300.7742
300.7749
300.7754
300.7758
300.7761
300.7762
300.7762
300.7761
300.7758
300.7753
300.7747
300.7738
300.7721
300.7675
300.7556
300.7415
300.7357
300.7253
300.7216
300.7188
300.7165
300.7864
300.7665
300.7639
300.7655
300.7675
300.7694
300.7709
300.7722
300.7732
300.7742
300.775
300.7753
300.7757
300.7759
300.7761
300.7761
300.7759
300.7756
300.7752
300.7745
300.7736
300.772
300.7673
300.7555
300.7413
300.7355
300.7251
300.7214
300.7184
300.7158
300.7814
300.7649
300.7632
300.765
300.7671
300.769
300.7705
300.7718
300.773
300.7743
300.7764
300.7755
300.7754
300.7756
300.7758
300.7758
300.7756
300.7753
300.7749
300.7742
300.7733
300.7717
300.7672
300.7556
300.7418
300.736
300.7257
300.7219
300.7189
300.7163
300.7617
300.7603
300.762
300.7643
300.7665
300.7684
300.77
300.7713
300.7727
300.7752
300.7818
300.7765
300.7752
300.7752
300.7753
300.7753
300.7752
300.7749
300.7744
300.7738
300.7729
300.7713
300.7674
300.7579
300.7461
300.7409
300.7312
300.7277
300.7247
300.722
300.7561
300.7582
300.7609
300.7635
300.7657
300.7676
300.7692
300.7706
300.7718
300.7731
300.7753
300.7744
300.7744
300.7746
300.7747
300.7747
300.7746
300.7743
300.7738
300.7731
300.7723
300.771
300.7689
300.765
300.7607
300.7579
300.7547
300.7519
300.7489
300.7462
300.7542
300.7568
300.7597
300.7624
300.7647
300.7666
300.7683
300.7697
300.7709
300.7719
300.7728
300.7732
300.7736
300.7738
300.774
300.774
300.7738
300.7735
300.773
300.7723
300.7714
300.7703
300.7688
300.7668
300.7646
300.7624
300.7599
300.7572
300.7544
300.7514
300.7526
300.7553
300.7583
300.761
300.7634
300.7654
300.7671
300.7685
300.7698
300.7707
300.7715
300.7721
300.7726
300.7729
300.773
300.773
300.7728
300.7725
300.772
300.7713
300.7704
300.7693
300.7679
300.7662
300.7642
300.7621
300.7597
300.7576
300.7564
300.7518
300.7508
300.7535
300.7566
300.7594
300.7618
300.7639
300.7657
300.7672
300.7684
300.7695
300.7703
300.7709
300.7714
300.7717
300.7719
300.7718
300.7717
300.7713
300.7708
300.7701
300.7691
300.768
300.7665
300.7649
300.7629
300.7607
300.7585
300.7579
300.7614
300.7524
300.7487
300.7515
300.7546
300.7575
300.76
300.7621
300.764
300.7655
300.7668
300.7679
300.7688
300.7695
300.77
300.7703
300.7705
300.7704
300.7703
300.7699
300.7693
300.7686
300.7676
300.7664
300.7649
300.7632
300.7612
300.7589
300.7564
300.7541
300.7528
300.7481
300.7463
300.7491
300.7524
300.7553
300.7578
300.7601
300.762
300.7636
300.765
300.7661
300.767
300.7677
300.7683
300.7686
300.7688
300.7688
300.7686
300.7682
300.7676
300.7668
300.7658
300.7646
300.763
300.7612
300.7592
300.7568
300.7541
300.7511
300.7481
300.7449
300.7435
300.7465
300.7498
300.7528
300.7554
300.7577
300.7597
300.7614
300.7628
300.764
300.765
300.7657
300.7663
300.7667
300.7668
300.7668
300.7666
300.7662
300.7656
300.7648
300.7637
300.7624
300.7608
300.759
300.7568
300.7544
300.7516
300.7485
300.7451
300.7421
300.7404
300.7434
300.7468
300.7499
300.7526
300.755
300.7571
300.7589
300.7604
300.7616
300.7626
300.7634
300.764
300.7644
300.7646
300.7646
300.7644
300.7639
300.7633
300.7624
300.7613
300.76
300.7583
300.7564
300.7542
300.7516
300.7488
300.7456
300.7421
300.739
300.737
300.7401
300.7435
300.7467
300.7495
300.752
300.7541
300.756
300.7576
300.7589
300.7599
300.7608
300.7614
300.7618
300.762
300.762
300.7618
300.7613
300.7607
300.7598
300.7586
300.7572
300.7555
300.7535
300.7512
300.7486
300.7456
300.7423
300.7388
300.7357
300.7333
300.7365
300.74
300.7432
300.7461
300.7487
300.7509
300.7528
300.7545
300.7559
300.757
300.7578
300.7585
300.7589
300.7591
300.7591
300.7589
300.7584
300.7577
300.7568
300.7556
300.7541
300.7524
300.7503
300.7479
300.7452
300.7422
300.7388
300.7352
300.7321
300.7301
300.7333
300.7369
300.7402
300.7431
300.7457
300.748
300.75
300.7517
300.7532
300.7543
300.7552
300.7559
300.7563
300.7566
300.7566
300.7563
300.7558
300.7551
300.7542
300.7529
300.7514
300.7496
300.7475
300.7451
300.7423
300.7392
300.7358
300.7321
300.7289
300.4699
300.4767
300.4841
300.4909
300.4969
300.5023
300.5069
300.511
300.5144
300.5174
300.5197
300.5215
300.5229
300.5238
300.5243
300.5243
300.5237
300.5228
300.5213
300.5193
300.5168
300.5136
300.5099
300.5056
300.5007
300.495
300.4887
300.4817
300.4741
300.4671
300.4769
300.4837
300.4909
300.4975
300.5035
300.5087
300.5132
300.5171
300.5205
300.5233
300.5255
300.5273
300.5286
300.5295
300.5299
300.5299
300.5294
300.5284
300.527
300.5251
300.5226
300.5196
300.516
300.5118
300.507
300.5015
300.4953
300.4884
300.4809
300.474
300.4845
300.4911
300.4982
300.5047
300.5104
300.5155
300.5198
300.5236
300.5268
300.5295
300.5316
300.5333
300.5345
300.5354
300.5358
300.5358
300.5353
300.5344
300.533
300.5312
300.5288
300.5259
300.5224
300.5184
300.5137
300.5083
300.5023
300.4955
300.4882
300.4814
300.4915
300.498
300.5049
300.5112
300.5168
300.5217
300.5259
300.5295
300.5325
300.5351
300.5371
300.5387
300.5399
300.5407
300.5411
300.541
300.5406
300.5397
300.5384
300.5367
300.5344
300.5316
300.5282
300.5243
300.5198
300.5146
300.5087
300.5021
300.495
300.4883
300.4978
300.5041
300.5109
300.517
300.5224
300.5271
300.5312
300.5346
300.5376
300.54
300.5419
300.5434
300.5446
300.5453
300.5457
300.5456
300.5452
300.5444
300.5431
300.5414
300.5393
300.5366
300.5334
300.5296
300.5252
300.5202
300.5144
300.508
300.501
300.4945
300.5034
300.5096
300.5162
300.5222
300.5274
300.5319
300.5358
300.5392
300.5419
300.5443
300.5461
300.5475
300.5486
300.5493
300.5496
300.5496
300.5492
300.5484
300.5472
300.5456
300.5435
300.5409
300.5378
300.5342
300.5299
300.525
300.5195
300.5132
300.5063
300.4999
300.5083
300.5144
300.5208
300.5266
300.5317
300.5361
300.5399
300.543
300.5457
300.5479
300.5496
300.551
300.552
300.5527
300.553
300.553
300.5526
300.5518
300.5507
300.5491
300.5471
300.5446
300.5417
300.5381
300.534
300.5293
300.5238
300.5177
300.511
300.5047
300.5125
300.5185
300.5249
300.5305
300.5354
300.5397
300.5433
300.5464
300.5489
300.551
300.5527
300.5539
300.5549
300.5555
300.5558
300.5558
300.5554
300.5547
300.5536
300.5521
300.5502
300.5478
300.5449
300.5415
300.5375
300.5329
300.5276
300.5216
300.5151
300.5089
300.5163
300.5221
300.5283
300.5338
300.5386
300.5427
300.5462
300.5492
300.5516
300.5536
300.5552
300.5564
300.5573
300.5579
300.5582
300.5582
300.5578
300.5571
300.5561
300.5546
300.5528
300.5505
300.5477
300.5444
300.5405
300.536
300.5308
300.525
300.5186
300.5125
300.5198
300.5252
300.5312
300.5366
300.5412
300.5452
300.5486
300.5515
300.5538
300.5557
300.5573
300.5584
300.5593
300.5599
300.5602
300.5601
300.5598
300.5591
300.5581
300.5567
300.5549
300.5527
300.55
300.5467
300.5429
300.5386
300.5335
300.5278
300.5215
300.5155
300.527
300.5284
300.5336
300.5388
300.5434
300.5473
300.5506
300.5533
300.5556
300.5575
300.5589
300.5601
300.5609
300.5614
300.5617
300.5617
300.5614
300.5607
300.5597
300.5584
300.5566
300.5544
300.5518
300.5485
300.5448
300.5405
300.5355
300.5299
300.5237
300.5178
300.5659
300.5344
300.5358
300.5406
300.545
300.5489
300.5521
300.5548
300.557
300.5588
300.5602
300.5613
300.5621
300.5627
300.5629
300.5629
300.5626
300.562
300.561
300.5597
300.558
300.5558
300.553
300.5493
300.5451
300.5408
300.5358
300.5302
300.5242
300.5188
300.539
300.5338
300.5371
300.5419
300.5463
300.55
300.5532
300.5558
300.558
300.5598
300.5612
300.5622
300.563
300.5636
300.5638
300.5638
300.5635
300.5629
300.5619
300.5606
300.5589
300.5566
300.553
300.5467
300.5394
300.5341
300.5271
300.5167
300.5113
300.5074
300.5831
300.5408
300.5388
300.5428
300.5471
300.5508
300.5539
300.5565
300.5587
300.5604
300.5618
300.5628
300.5636
300.5641
300.5644
300.5644
300.5641
300.5635
300.5625
300.5612
300.5595
300.5567
300.5508
300.5367
300.5174
300.5074
300.4775
300.4654
300.4612
300.4605
300.5907
300.5429
300.5395
300.5433
300.5475
300.5512
300.5543
300.5569
300.559
300.5607
300.5621
300.5631
300.5639
300.5644
300.5647
300.5646
300.5643
300.5638
300.5628
300.5615
300.5598
300.5569
300.55
300.5333
300.5108
300.4999
300.468
300.4554
300.45
300.4461
300.5916
300.5431
300.5395
300.5433
300.5475
300.5512
300.5543
300.5569
300.559
300.5607
300.5621
300.5631
300.5639
300.5644
300.5647
300.5646
300.5643
300.5638
300.5628
300.5615
300.5598
300.5568
300.5498
300.5326
300.5097
300.4986
300.4665
300.4538
300.4478
300.4424
300.5902
300.5424
300.539
300.5429
300.5471
300.5508
300.5539
300.5565
300.5587
300.5605
300.5622
300.5629
300.5636
300.5641
300.5644
300.5644
300.564
300.5635
300.5625
300.5612
300.5594
300.5565
300.5495
300.5323
300.5093
300.4982
300.4661
300.4533
300.4471
300.4414
300.5817
300.5398
300.5379
300.542
300.5463
300.55
300.5532
300.5558
300.5581
300.5605
300.5643
300.563
300.5631
300.5636
300.5638
300.5638
300.5635
300.5629
300.5619
300.5606
300.5588
300.5559
300.549
300.5322
300.5097
300.4987
300.4667
300.4539
300.4476
300.4419
300.5376
300.5315
300.5356
300.5406
300.545
300.5489
300.5521
300.5548
300.5574
300.5619
300.5732
300.5644
300.5625
300.5627
300.5629
300.5629
300.5626
300.5619
300.561
300.5596
300.5578
300.555
300.549
300.5349
300.5155
300.5054
300.4754
300.4676
300.4613
300.4555
300.523
300.5278
300.5335
300.5388
300.5434
300.5473
300.5505
300.5533
300.5557
300.5582
300.562
300.5608
300.561
300.5614
300.5617
300.5617
300.5613
300.5607
300.5597
300.5583
300.5566
300.5542
300.5505
300.5441
300.5366
300.5312
300.5241
300.5183
300.5121
300.5061
300.5194
300.5251
300.5311
300.5365
300.5412
300.5452
300.5486
300.5514
300.5538
300.5558
300.5576
300.5585
300.5593
300.5598
300.5601
300.5601
300.5597
300.5591
300.5581
300.5567
300.5549
300.5526
300.5497
300.5459
300.5416
300.537
300.5319
300.5264
300.5205
300.5141
300.5162
300.5221
300.5282
300.5338
300.5386
300.5427
300.5462
300.5491
300.5515
300.5536
300.5552
300.5564
300.5573
300.5579
300.5581
300.5581
300.5578
300.5571
300.556
300.5546
300.5527
300.5504
300.5476
300.5442
300.5403
300.5358
300.5308
300.526
300.5225
300.5137
300.5125
300.5185
300.5248
300.5304
300.5354
300.5396
300.5432
300.5463
300.5488
300.5509
300.5526
300.5539
300.5548
300.5554
300.5558
300.5557
300.5554
300.5546
300.5535
300.552
300.5501
300.5477
300.5449
300.5414
300.5374
300.5329
300.5282
300.5257
300.5292
300.5136
300.5082
300.5143
300.5208
300.5266
300.5316
300.536
300.5398
300.5429
300.5456
300.5478
300.5495
300.5509
300.5519
300.5526
300.5529
300.5528
300.5525
300.5517
300.5506
300.549
300.547
300.5445
300.5416
300.538
300.5339
300.5292
300.524
300.5189
300.5151
300.5061
300.5033
300.5095
300.5161
300.5221
300.5273
300.5318
300.5357
300.539
300.5418
300.5441
300.546
300.5474
300.5484
300.5491
300.5495
300.5495
300.549
300.5483
300.5471
300.5454
300.5434
300.5408
300.5377
300.534
300.5298
300.5249
300.5194
300.5133
300.5069
300.5001
300.4976
300.504
300.5108
300.5169
300.5223
300.527
300.5311
300.5345
300.5374
300.5399
300.5418
300.5433
300.5444
300.5452
300.5455
300.5455
300.5451
300.5442
300.543
300.5413
300.5391
300.5364
300.5332
300.5294
300.5251
300.52
300.5143
300.5079
300.501
300.4944
300.4913
300.4979
300.5048
300.5111
300.5166
300.5215
300.5257
300.5293
300.5324
300.5349
300.537
300.5385
300.5397
300.5405
300.5409
300.5409
300.5404
300.5396
300.5383
300.5365
300.5342
300.5314
300.5281
300.5242
300.5196
300.5144
300.5086
300.502
300.4948
300.4882
300.4843
300.491
300.4981
300.5045
300.5103
300.5153
300.5197
300.5234
300.5266
300.5293
300.5314
300.5331
300.5344
300.5352
300.5356
300.5356
300.5351
300.5342
300.5328
300.531
300.5286
300.5257
300.5222
300.5182
300.5135
300.5082
300.5021
300.4954
300.4881
300.4813
300.4767
300.4835
300.4907
300.4974
300.5033
300.5085
300.513
300.5169
300.5203
300.5231
300.5253
300.5271
300.5284
300.5293
300.5297
300.5297
300.5292
300.5282
300.5268
300.5249
300.5224
300.5194
300.5158
300.5116
300.5068
300.5013
300.4951
300.4882
300.4807
300.4738
300.4697
300.4766
300.4839
300.4907
300.4967
300.5021
300.5067
300.5108
300.5142
300.5172
300.5195
300.5213
300.5227
300.5236
300.5241
300.524
300.5235
300.5225
300.5211
300.5191
300.5165
300.5134
300.5097
300.5054
300.5005
300.4948
300.4885
300.4815
300.4739
300.4669
)
;

boundaryField
{
    fmaxY
    {
        type            zeroGradient;
    }
    fminX
    {
        type            zeroGradient;
    }
    fmaxX
    {
        type            zeroGradient;
    }
    fminY
    {
        type            zeroGradient;
    }
    fminZ
    {
        type            externalWallHeatFluxTemperature;
        mode            coefficient;
        kappaMethod     solidThermo;
        kappa           none;
        h               constant 1000000;
        Ta              uniform 313;
        thicknessLayers List<scalar> 2(1 2);
        kappaLayers     List<scalar> 2(100 200);
        qr              none;
        refValue        uniform 313;
        refGradient     uniform 0;
        valueFraction   nonuniform List<scalar> 
900
(
0.04950261
0.04950261
0.04950261
0.04950261
0.04950261
0.04950261
0.04950261
0.04950261
0.04950261
0.04950261
0.04950261
0.04950261
0.04950261
0.04950261
0.04950261
0.04950261
0.04950261
0.04950261
0.04950261
0.04950261
0.04950261
0.04950261
0.04950261
0.04950261
0.04950261
0.04950261
0.04950261
0.04950261
0.04950261
0.04950261
0.04950261
0.04950261
0.04950261
0.04950261
0.04950261
0.04950261
0.04950261
0.04950261
0.04950261
0.04950261
0.04950261
0.04950261
0.04950261
0.04950261
0.04950261
0.04950261
0.04950261
0.04950261
0.04950261
0.04950261
0.04950261
0.04950261
0.04950261
0.04950261
0.04950261
0.04950261
0.04950261
0.04950261
0.04950261
0.04950261
0.04950261
0.04950261
0.04950261
0.04950261
0.04950261
0.04950261
0.04950261
0.04950261
0.04950261
0.04950261
0.04950261
0.04950261
0.04950261
0.04950261
0.04950261
0.04950261
0.04950261
0.04950261
0.04950261
0.04950261
0.04950261
0.04950261
0.04950261
0.04950261
0.04950261
0.04950261
0.04950261
0.04950261
0.04950261
0.04950261
0.04950261
0.04950261
0.04950261
0.04950261
0.04950261
0.04950261
0.04950261
0.04950261
0.04950261
0.04950261
0.04950261
0.04950261
0.04950261
0.04950261
0.04950261
0.04950261
0.04950261
0.04950261
0.04950261
0.04950261
0.04950261
0.04950261
0.04950261
0.04950261
0.04950261
0.04950261
0.04950261
0.04950261
0.04950261
0.04950261
0.04950261
0.04950261
0.04950261
0.04950261
0.04950261
0.04950261
0.04950261
0.04950261
0.04950261
0.04950261
0.04950261
0.04950261
0.04950261
0.04950261
0.04950261
0.04950261
0.04950261
0.04950261
0.04950261
0.04950261
0.04950261
0.04950261
0.04950261
0.04950261
0.04950261
0.04950261
0.04950261
0.04950261
0.04950261
0.04950261
0.04950261
0.04950261
0.04950261
0.04950261
0.04950261
0.04950261
0.04950261
0.04950261
0.04950261
0.04950261
0.04950261
0.04950261
0.04950261
0.04950261
0.04950261
0.04950261
0.04950261
0.04950261
0.04950261
0.04950261
0.04950261
0.04950261
0.04950261
0.04950261
0.04950261
0.04950261
0.04950261
0.04950261
0.04950261
0.04950261
0.04950261
0.04950261
0.04950261
0.04950261
0.04950261
0.04950261
0.04950261
0.04950261
0.04950261
0.04950261
0.04950261
0.04950261
0.04950261
0.04950261
0.04950261
0.04950261
0.04950261
0.04950261
0.04950261
0.04950261
0.04950261
0.04950261
0.04950261
0.04950261
0.04950261
0.04950261
0.04950261
0.04950261
0.04950261
0.04950261
0.04950261
0.04950261
0.04950261
0.04950261
0.04950261
0.04950261
0.04950261
0.04950261
0.04950261
0.04950261
0.04950261
0.04950261
0.04950261
0.04950261
0.04950261
0.04950261
0.04950261
0.04950261
0.04950261
0.04950261
0.04950261
0.04950261
0.04950261
0.04950261
0.04950261
0.04950261
0.04950261
0.04950261
0.04950261
0.04950261
0.04950261
0.04950261
0.04950261
0.04950261
0.04950261
0.04950261
0.04950261
0.04950261
0.04950261
0.04950261
0.04950261
0.04950261
0.04950261
0.04950261
0.04950261
0.04950261
0.04950261
0.04950261
0.04950261
0.04950261
0.04950261
0.04950261
0.04950261
0.04950261
0.04950261
0.04950261
0.04950261
0.04950261
0.04950261
0.04950261
0.04950261
0.04950261
0.04950261
0.04950261
0.04950261
0.04950261
0.04950261
0.04950261
0.04950261
0.04950261
0.04950261
0.04950261
0.04950261
0.04950261
0.04950261
0.04950261
0.04950261
0.04950261
0.04950261
0.04950261
0.04950261
0.04950261
0.04950261
0.04950261
0.04950261
0.04950261
0.04950261
0.04950261
0.04950261
0.04950261
0.04950261
0.04950261
0.04950261
0.04950261
0.04950261
0.04950261
0.04950261
0.04950261
0.04950261
0.04950261
0.04950261
0.04950261
0.04950261
0.04950261
0.04950261
0.04950261
0.04950261
0.04950261
0.04950261
0.04950261
0.04950261
0.04950261
0.04950261
0.04950261
0.04950261
0.04950261
0.04950261
0.04950261
0.04950261
0.04950261
0.04950261
0.04950261
0.04950261
0.04950261
0.04950261
0.04950261
0.04950261
0.04950261
0.04950261
0.04950261
0.04950261
0.04950261
0.04950261
0.04950261
0.04950261
0.04950261
0.04950261
0.04950261
0.04950261
0.04950261
0.04950261
0.04950261
0.04950261
0.04950261
0.04950261
0.04950261
0.04950261
0.04950261
0.04950261
0.04950261
0.04950261
0.04950261
0.04950261
0.04950261
0.04950261
0.04950261
0.04950261
0.04950261
0.04950261
0.04950261
0.04950261
0.04950261
0.04950261
0.04950261
0.04950261
0.04950261
0.04950261
0.04950261
0.04950261
0.04950261
0.04950261
0.04950261
0.04950261
0.04950261
0.04950261
0.04950261
0.04950261
0.04950261
0.04950261
0.04950261