/*--------------------------------*- C++ -*----------------------------------*\
| =========                 |                                                 |
| \\      /  F ield         | OpenFOAM: The Open Source CFD Toolbox           |
|  \\    /   O peration     | Version:  2506                                  |
|   \\  /    A nd           | Website:  www.openfoam.com                      |
|    \\/     M anipulation  |                                                 |
\*---------------------------------------------------------------------------*/
FoamFile
{
    version     2.0;
    format      ascii;
    arch        "LSB;label=32;scalar=64";
    class       volScalarField;
    location    "4000/air";
    object      epsilon;
}
// * * * * * * * * * * * * * * * * * * * * * * * * * * * * * * * * * * * * * //

dimensions      [0 2 -3 0 0 0 0];

internalField   nonuniform List<scalar> 
33752
(
0.03775854
0.03727107
0.03683987
0.03650959
0.03624373
0.03602025
0.03582664
0.03565535
0.0355025
0.03536693
0.03524947
0.03515226
0.03507815
0.03503
0.03501014
0.03502018
0.03506
0.03512812
0.03522232
0.03533971
0.03547741
0.03563315
0.03580594
0.03599675
0.03620926
0.03645081
0.03673384
0.03708052
0.03752793
0.03803029
0.03726877
0.03651912
0.03594253
0.03554071
0.03523941
0.03499819
0.03479489
0.03461717
0.03445892
0.03431809
0.03419531
0.03409291
0.03401411
0.03396214
0.0339397
0.03394889
0.03398955
0.03405973
0.03415687
0.03427773
0.03441905
0.03457841
0.03475505
0.03495086
0.03517182
0.03543021
0.03574832
0.03616712
0.03676212
0.03753093
0.03683425
0.03593923
0.03523379
0.03474536
0.0343882
0.0341098
0.03387957
0.03368012
0.03350266
0.03334402
0.03320467
0.0330874
0.03299617
0.03293505
0.03290744
0.03291584
0.03296011
0.03303789
0.03314595
0.03328022
0.03343671
0.03361256
0.03380718
0.03402368
0.03427074
0.03456585
0.03493987
0.03544606
0.03617164
0.03708807
0.0364996
0.03553329
0.03474138
0.03417949
0.03376409
0.03343942
0.03317067
0.03293712
0.03272803
0.03253951
0.03237229
0.03223013
0.03211832
0.03204234
0.03200669
0.03201445
0.03206552
0.03215698
0.03228447
0.03244255
0.03262591
0.03283075
0.03305623
0.03330621
0.0335914
0.03393267
0.03436517
0.03494548
0.03575862
0.03674745
0.03622839
0.03522707
0.03437959
0.03375958
0.03328886
0.03291314
0.03259692
0.03231816
0.03206526
0.03183432
0.03162703
0.03144883
0.03130716
0.03120966
0.03116255
0.03116977
0.03123127
0.03134328
0.03149973
0.03169304
0.03191577
0.03216244
0.03243129
0.03272617
0.0330587
0.03345107
0.03393916
0.03457808
0.03544746
0.03647185
0.03599872
0.03498023
0.034096
0.03342993
0.03290825
0.03247932
0.03210875
0.03177481
0.03146623
0.03118003
0.03091967
0.03069322
0.03051127
0.03038465
0.0303221
0.03032884
0.03040485
0.03054513
0.0307411
0.03098203
0.03125734
0.03155891
0.03188322
0.03223318
0.03262009
0.03306582
0.03360511
0.03429043
0.03519699
0.03623886
0.03579823
0.03477074
0.03386012
0.03315585
0.03258689
0.03210367
0.03167332
0.03127526
0.03089953
0.03054505
0.03021802
0.02993017
0.02969651
0.02953231
0.02944984
0.0294561
0.02955114
0.0297282
0.02997521
0.03027703
0.03061866
0.03098833
0.03137972
0.03179386
0.03224067
0.03274085
0.03332768
0.03405148
0.03498474
0.0360358
0.0356195
0.03458635
0.03365464
0.0329167
0.03230279
0.03176455
0.03127015
0.03080022
0.03034674
0.02991145
0.02950428
0.02914167
0.02884525
0.02863465
0.02852679
0.02853261
0.02865214
0.02887475
0.02918387
0.02956002
0.02998155
0.03043197
0.03090119
0.03138733
0.03189839
0.03245383
0.03308585
0.03384359
0.03479822
0.03585512
0.03545875
0.03442106
0.03347086
0.0327018
0.03204443
0.03145076
0.03088936
0.03034176
0.029802
0.02927552
0.02877671
0.02832858
0.02795719
0.02768976
0.02755067
0.02755605
0.02770591
0.02798453
0.02836791
0.02882911
0.02934214
0.02988379
0.03043946
0.03100352
0.03158184
0.03219299
0.03286876
0.03365792
0.03463132
0.03569299
0.0353148
0.03427282
0.03330564
0.03250729
0.03180795
0.03115934
0.03052991
0.02990167
0.02927082
0.02864594
0.02805143
0.02751545
0.02706352
0.0267336
0.02655961
0.02656448
0.02674829
0.02708865
0.02755191
0.02810043
0.02870904
0.02934925
0.02999628
0.0306413
0.03128799
0.03195441
0.03267249
0.03349129
0.03448205
0.03554837
0.03518832
0.03414226
0.03315946
0.03233393
0.03159503
0.03089376
0.030198
0.02948992
0.02876765
0.02804725
0.02735874
0.02671628
0.02616539
0.02577568
0.02559
0.02559418
0.02578831
0.02618816
0.02674996
0.02740461
0.02810686
0.02884286
0.02958164
0.03030689
0.03102031
0.03173979
0.03249782
0.03334426
0.0343512
0.03542231
0.03508099
0.03403167
0.03303509
0.03218543
0.03141107
0.03066204
0.02990531
0.02912285
0.02831549
0.02750748
0.02671256
0.02595774
0.02538977
0.02498967
0.02477824
0.02478197
0.02500096
0.02540942
0.02598866
0.02675567
0.02756412
0.02838776
0.02921207
0.03001215
0.03078697
0.03155465
0.03234862
0.03321977
0.03424135
0.03531739
0.03499757
0.03394462
0.03293657
0.03206708
0.03126346
0.03047468
0.02966672
0.02882201
0.02794018
0.0270519
0.02615826
0.02538674
0.02477304
0.02432278
0.02408276
0.02408616
0.02433312
0.02479118
0.02541416
0.026199
0.02710628
0.02801013
0.02890934
0.02977215
0.03059866
0.03140655
0.03223029
0.03312205
0.03415627
0.03523734
0.03493939
0.033884
0.03286784
0.03198425
0.03115972
0.03034237
0.02949738
0.02860679
0.02766865
0.02671817
0.02576584
0.02498377
0.02432006
0.02382904
0.02356596
0.02356918
0.02383879
0.02433728
0.02501002
0.02580334
0.02677126
0.02773723
0.0286931
0.02960218
0.0304662
0.03130309
0.03214823
0.03305466
0.03409778
0.03518257
0.03490944
0.03385259
0.03283221
0.03194131
0.03110593
0.0302737
0.02940932
0.02849385
0.027525
0.02654009
0.02557671
0.02476932
0.0240773
0.02356336
0.02328688
0.02329007
0.02357296
0.02409424
0.02479527
0.0256139
0.02659282
0.02759328
0.0285801
0.02951431
0.030398
0.03125004
0.03210633
0.0330204
0.03406821
0.03515519
0.0349092
0.03385244
0.03283212
0.03194128
0.03110596
0.03027377
0.0294094
0.02849396
0.02752511
0.02654022
0.02557691
0.02476957
0.02407761
0.02356374
0.02328734
0.02329063
0.02357362
0.02409498
0.02479608
0.02561479
0.0265938
0.02759432
0.0285812
0.02951547
0.03039922
0.03125131
0.03210767
0.03302181
0.03406972
0.03515686
0.03493866
0.03388351
0.03286756
0.03198413
0.03115976
0.03034255
0.02949767
0.02860715
0.02766904
0.02671863
0.02576651
0.0249846
0.02432106
0.02383025
0.02356741
0.02357091
0.02384078
0.0243395
0.02501247
0.02580602
0.02677417
0.02774034
0.02869639
0.02960567
0.03046991
0.03130698
0.03215234
0.03305897
0.03410234
0.03518763
0.03499664
0.03394376
0.03293601
0.0320668
0.03126346
0.03047494
0.02966725
0.02882268
0.02794095
0.02705279
0.02615934
0.02538829
0.02477489
0.02432497
0.02408533
0.02408917
0.02433654
0.02479499
0.02541833
0.02620354
0.02711119
0.02801533
0.02891485
0.02977802
0.03060493
0.03141315
0.03223726
0.03312932
0.03416366
0.0352456
0.03507935
0.03403033
0.03303416
0.0321849
0.03141095
0.03066232
0.02990599
0.0291239
0.02831675
0.02750893
0.0267143
0.02595988
0.02539264
0.02499302
0.02478212
0.02478642
0.02500596
0.02541495
0.02599469
0.0267622
0.02757112
0.0283951
0.02921978
0.03002029
0.03079555
0.03156361
0.03235799
0.03322953
0.03425156
0.03532846
0.03518575
0.03414019
0.03315794
0.03233297
0.03159465
0.03089398
0.03019881
0.02949129
0.02876952
0.02804948
0.02736142
0.02671955
0.02616929
0.02578038
0.02559537
0.02560027
0.02579511
0.0261956
0.02675805
0.02741331
0.02811603
0.02885242
0.0295916
0.03031723
0.031031
0.03175079
0.03250914
0.03335591
0.03436328
0.03543505
0.03531106
0.03426976
0.03330332
0.03250573
0.03180717
0.03115938
0.03053078
0.02990336
0.02927328
0.02864912
0.02805522
0.02751997
0.02706884
0.02673975
0.02656665
0.02657242
0.02675707
0.02709825
0.02756224
0.0281114
0.0287205
0.02936118
0.0300086
0.03065394
0.03130092
0.03196759
0.0326859
0.03350497
0.03449607
0.03556285
0.03545361
0.03441677
0.03346751
0.03269942
0.03204307
0.03145047
0.03089017
0.03034369
0.02980501
0.02927955
0.02878175
0.02833456
0.02796413
0.02769771
0.02755966
0.02756607
0.0277169
0.02799642
0.02838058
0.02884244
0.02935606
0.02989819
0.03045424
0.03101861
0.03159717
0.03220852
0.03288448
0.03367384
0.03464748
0.03570947
0.03561272
0.0345806
0.03365003
0.03291329
0.03230065
0.03176377
0.03127077
0.03080227
0.0303502
0.02991627
0.02951041
0.02914908
0.02885387
0.02864448
0.02853781
0.02854479
0.02866538
0.02888896
0.02919891
0.02957581
0.02999797
0.03044888
0.03091849
0.03140492
0.0319162
0.03247182
0.03310398
0.03386187
0.03481667
0.03587381
0.0357896
0.03476331
0.03385405
0.03315122
0.0325838
0.03210223
0.03167361
0.03127729
0.0309033
0.03055052
0.03022513
0.02993887
0.02970673
0.02954395
0.02946284
0.0294704
0.0295666
0.02974471
0.02999266
0.03029527
0.03063756
0.03100773
0.03139952
0.03181395
0.03226097
0.03276132
0.03334827
0.0340722
0.03500561
0.03605689
0.0359881
0.03497098
0.03408831
0.03342393
0.03290407
0.03247708
0.03210855
0.03177669
0.03147018
0.03118602
0.03092762
0.03070305
0.03052289
0.03039794
0.03033694
0.03034511
0.03042242
0.03056385
0.03076083
0.03100261
0.03127861
0.03158072
0.03190543
0.03225569
0.03264281
0.03308869
0.0336281
0.03431353
0.03522025
0.03626233
0.03621575
0.03521594
0.03437022
0.03375212
0.03328348
0.03290999
0.03259613
0.03231976
0.03206926
0.03184068
0.03163566
0.03145963
0.03131999
0.03122438
0.03117901
0.03118782
0.03125075
0.03136401
0.03152154
0.03171576
0.03193922
0.03218646
0.03245574
0.03275094
0.03308368
0.0334762
0.0339644
0.03460341
0.03547293
0.03649754
0.03648502
0.03552034
0.03473034
0.03417055
0.03375747
0.0334353
0.0331692
0.03293835
0.03273197
0.03254609
0.03238143
0.03224168
0.03213214
0.03205826
0.03202453
0.03203403
0.03208665
0.03217945
0.0323081
0.03246715
0.0326513
0.03285675
0.0330827
0.03333301
0.03361842
0.03395982
0.03439241
0.03497279
0.03578605
0.03677508
0.03681793
0.03592458
0.03522113
0.03473495
0.03438031
0.03410467
0.03387736
0.03368089
0.03350641
0.03335068
0.03321412
0.03309949
0.03301073
0.0329519
0.03292636
0.03293663
0.03298256
0.03306179
0.03317109
0.0333064
0.03346372
0.03364023
0.03383535
0.03405219
0.03429947
0.03459471
0.03496879
0.03547502
0.03620067
0.03711726
0.03725097
0.03650292
0.03592832
0.03552885
0.03523024
0.034992
0.03479185
0.03461736
0.03446233
0.03432464
0.03420486
0.0341053
0.03402914
0.03397962
0.03395939
0.03397058
0.03401301
0.03408472
0.03418318
0.03430513
0.03444735
0.0346074
0.03478456
0.03498073
0.03520191
0.03546042
0.03577856
0.03619734
0.03679233
0.03756124
0.03773966
0.03725351
0.03682424
0.03649637
0.03623335
0.03601302
0.03582276
0.0356549
0.03550547
0.03537322
0.03525894
0.03516472
0.0350934
0.03504781
0.03503028
0.03504243
0.0350841
0.03515383
0.0352494
0.03536795
0.03550658
0.03566304
0.03583637
0.03602756
0.03624028
0.03648194
0.03676497
0.03711158
0.03755891
0.03806124
0.01324222
0.01317937
0.01311197
0.01305017
0.01299338
0.01294046
0.01289077
0.01284407
0.01280056
0.01276083
0.01272573
0.0126963
0.01267367
0.01265883
0.01265261
0.01265551
0.01266749
0.01268805
0.01271642
0.01275154
0.0127923
0.01283761
0.01288654
0.01293845
0.01299306
0.0130505
0.01311133
0.0131766
0.01324682
0.01331156
0.0131791
0.01307281
0.01297371
0.01289372
0.01282701
0.0127686
0.01271561
0.01266666
0.01262137
0.01258004
0.01254344
0.01251266
0.01248886
0.01247313
0.01246636
0.01246911
0.01248134
0.0125025
0.01253173
0.01256793
0.01260989
0.0126565
0.01270695
0.01276085
0.01281854
0.01288134
0.01295208
0.01303576
0.01313822
0.01324727
0.01311102
0.01297306
0.01284228
0.01273942
0.01265734
0.01258842
0.01252777
0.0124727
0.01242213
0.01237602
0.01233509
0.01230047
0.0122735
0.01225548
0.01224743
0.01225002
0.01226322
0.01228637
0.01231846
0.01235819
0.0124042
0.01245532
0.0125108
0.01257061
0.01263581
0.01270906
0.01279524
0.01290207
0.01303675
0.01317807
0.01304819
0.01289209
0.01273848
0.01261563
0.01251757
0.01243589
0.01236464
0.01230029
0.01224124
0.01218726
0.01213907
0.01209804
0.01206581
0.01204401
0.01203393
0.01203639
0.01205135
0.01207803
0.01211513
0.01216104
0.01221408
0.01227288
0.01233666
0.01240562
0.01248135
0.01256735
0.01266962
0.01279667
0.01295454
0.01311433
0.01299006
0.01282412
0.0126552
0.0125164
0.01240338
0.012308
0.01222408
0.01214774
0.01207716
0.01201213
0.01195361
0.01190334
0.0118635
0.01183623
0.01182325
0.01182559
0.01184324
0.01187517
0.01191969
0.01197465
0.01203789
0.0121076
0.0121828
0.01226369
0.01235206
0.01245179
0.01256912
0.01271228
0.01288568
0.01305546
0.01293553
0.0127642
0.01258487
0.01243336
0.01230667
0.01219723
0.01209904
0.01200831
0.01192328
0.01184399
0.01177185
0.01170928
0.01165921
0.01162455
0.01160766
0.0116099
0.01163126
0.0116704
0.01172499
0.01179213
0.01186886
0.01195275
0.01204235
0.01213762
0.01224026
0.01235409
0.01248517
0.01264115
0.01282509
0.01300034
0.01288401
0.0127095
0.01252262
0.01236059
0.01222126
0.01209759
0.01198388
0.0118766
0.01177432
0.01167755
0.01158842
0.01151026
0.0114471
0.01140294
0.01138099
0.01138313
0.01140936
0.01145784
0.01152538
0.01160799
0.01170165
0.01180298
0.01190982
0.01202164
0.01213983
0.01226794
0.01241172
0.0125783
0.01276988
0.01294834
0.0128353
0.01265868
0.01246581
0.0122946
0.01214334
0.0120053
0.01187507
0.01174939
0.01162729
0.01150998
0.01140053
0.0113035
0.01122436
0.01116846
0.0111402
0.01114225
0.01117459
0.01123465
0.01131803
0.01141943
0.01153336
0.01165522
0.01178189
0.01191214
0.01204691
0.01218944
0.01234521
0.01252104
0.01271866
0.01289926
0.01278964
0.01261138
0.01241338
0.0122338
0.0120711
0.01191867
0.01177121
0.01162573
0.01148176
0.01134134
0.01120875
0.01109003
0.0109922
0.01092244
0.01088679
0.01088873
0.01092827
0.01100201
0.01110396
0.01122696
0.01136401
0.011509
0.01165759
0.01180769
0.01195973
0.01211672
0.012284
0.01246825
0.01267107
0.01285334
0.01274761
0.01256791
0.0123653
0.01217798
0.01200433
0.01183771
0.01167284
0.01150685
0.01133979
0.01117464
0.01101731
0.01087531
0.01075746
0.01067344
0.01063077
0.01063258
0.01067891
0.01076678
0.01088862
0.01103483
0.0111966
0.01136636
0.01153811
0.01170879
0.01187833
0.01204957
0.01222786
0.01241994
0.01262743
0.01281119
0.01271004
0.01252906
0.01232229
0.01212786
0.01194399
0.01176385
0.01158206
0.01139582
0.01120567
0.01101582
0.01083333
0.01066677
0.01053101
0.01043959
0.01039951
0.01040113
0.01044451
0.01053973
0.01067947
0.01085018
0.01103709
0.01123161
0.01142654
0.01161756
0.0118041
0.01198895
0.01217755
0.01237682
0.01258857
0.01277372
0.01267797
0.01249588
0.0122855
0.01208482
0.01189184
0.0116995
0.01150222
0.0112972
0.01108545
0.01087237
0.01066535
0.01048119
0.01035471
0.01026651
0.01022165
0.0102232
0.01027119
0.01036275
0.01049318
0.0106816
0.01089304
0.01111084
0.01132746
0.01153737
0.0117395
0.01193664
0.01213443
0.01234007
0.01255559
0.01274205
0.0126527
0.01246963
0.01225627
0.0120505
0.01185004
0.01164758
0.01143732
0.01121644
0.0109861
0.01075309
0.01052824
0.01035343
0.01021967
0.01012438
0.01007457
0.01007606
0.01012888
0.01022736
0.01036466
0.01054386
0.01077328
0.01101107
0.01124637
0.01147226
0.01168746
0.01189481
0.01210019
0.01231105
0.01252972
0.01271736
0.01263509
0.01245133
0.01223588
0.01202649
0.0118207
0.01161098
0.01139133
0.01115882
0.01091475
0.01066758
0.01043568
0.01026398
0.01012315
0.01002061
0.009966364
0.009967816
0.010025
0.01013066
0.0102749
0.01045032
0.01068749
0.0109395
0.01118863
0.01142622
0.01165091
0.01186561
0.0120764
0.01229099
0.0125119
0.01270041
0.012626
0.01244189
0.01222535
0.01201408
0.01180552
0.01159201
0.01136743
0.01112874
0.01087739
0.01062332
0.01039422
0.01021781
0.01007207
0.009965128
0.009908232
0.009909684
0.009969518
0.01007957
0.0102287
0.0104088
0.01064322
0.01090217
0.01115863
0.01140247
0.01163215
0.0118507
0.01206432
0.01228085
0.01250294
0.01269192
0.01262594
0.01244184
0.01222532
0.01201407
0.01180552
0.01159203
0.01136747
0.01112879
0.01087745
0.0106234
0.01039432
0.01021793
0.01007221
0.00996529
0.009908418
0.009909899
0.009969761
0.01007984
0.01022899
0.01040912
0.01064356
0.01090253
0.01115901
0.01140286
0.01163255
0.01185111
0.01206475
0.01228129
0.01250339
0.0126924
0.0126349
0.01245119
0.01223579
0.01202644
0.0118207
0.01161103
0.01139143
0.01115897
0.01091494
0.01066782
0.01043601
0.01026436
0.01012358
0.01002111
0.009966939
0.009968473
0.01002574
0.01013148
0.01027579
0.01045129
0.01068852
0.01094059
0.01118976
0.01142739
0.01165211
0.01186685
0.01207768
0.0122923
0.01251327
0.01270186
0.0126524
0.01246937
0.01225609
0.0120504
0.01185002
0.01164766
0.01143749
0.01121669
0.01098643
0.01075351
0.01052876
0.01035409
0.01022045
0.01012526
0.01007557
0.01007719
0.01013015
0.01022876
0.01036618
0.0105455
0.01077502
0.01101289
0.01124826
0.01147421
0.01168948
0.01189688
0.01210232
0.01231324
0.01253198
0.01271975
0.0126775
0.01249548
0.0122852
0.01208464
0.01189179
0.01169959
0.01150245
0.01129756
0.01108595
0.010873
0.01066613
0.01048213
0.01035585
0.01026782
0.01022313
0.01022485
0.01027303
0.01036477
0.01049537
0.01068395
0.01089551
0.0111134
0.0113301
0.01154009
0.0117423
0.01193951
0.01213737
0.01234308
0.01255871
0.0127453
0.01270933
0.01252844
0.01232182
0.01212756
0.01194386
0.01176392
0.01158233
0.01139629
0.01120634
0.01101668
0.0108344
0.01066808
0.01053255
0.01044138
0.01040152
0.01040337
0.01044698
0.01054243
0.01068237
0.01085326
0.0110403
0.01123493
0.01142995
0.01162106
0.01180768
0.01199259
0.01218125
0.01238059
0.01259243
0.0127777
0.01274659
0.01256704
0.01236462
0.0121775
0.01200409
0.01183773
0.01167312
0.01150741
0.01134063
0.01117576
0.0110187
0.01087699
0.01075944
0.01067573
0.01063335
0.01063545
0.01068206
0.01077019
0.01089226
0.01103865
0.01120057
0.01137046
0.01154231
0.01171308
0.01188269
0.01205399
0.01223234
0.01242448
0.01263205
0.01281589
0.01278827
0.01261018
0.01241242
0.01223311
0.01207071
0.0119186
0.01177149
0.01162637
0.01148276
0.0113427
0.01121047
0.01109212
0.01099465
0.01092526
0.01088996
0.01089224
0.01093211
0.01100613
0.01110833
0.01123154
0.01136876
0.01151388
0.01166259
0.01181279
0.0119649
0.01212195
0.01228927
0.01247358
0.01267646
0.0128588
0.01283352
0.01265711
0.01246453
0.01229365
0.01214275
0.01200511
0.0118753
0.01175006
0.01162842
0.01151157
0.01140257
0.01130598
0.01122728
0.01117181
0.01114397
0.0111464
0.0111791
0.01123947
0.01132312
0.01142476
0.01153888
0.0116609
0.01178769
0.01191804
0.01205288
0.01219547
0.01235129
0.01252717
0.01272485
0.0129055
0.01288177
0.01270752
0.01252097
0.01235933
0.01222043
0.01209724
0.01198404
0.01187728
0.01177555
0.01167933
0.01159073
0.01151311
0.01145046
0.01140679
0.01138531
0.01138789
0.01141451
0.01146334
0.01153118
0.01161406
0.01170793
0.01180943
0.0119164
0.01202833
0.0121466
0.01227478
0.01241861
0.01258524
0.01277687
0.01295538
0.01293282
0.01276176
0.01258282
0.01243176
0.01230557
0.01219668
0.01209909
0.01200896
0.01192457
0.01184591
0.0117744
0.01171244
0.01166296
0.01162886
0.01161249
0.01161521
0.01163701
0.01167654
0.01173146
0.01179888
0.01187585
0.01195993
0.01204968
0.01214507
0.0122478
0.0123617
0.01249283
0.01264887
0.01283285
0.01300816
0.01298687
0.01282123
0.01265274
0.01251444
0.01240199
0.01230724
0.01222398
0.01214834
0.01207848
0.01201417
0.01195635
0.01190677
0.01186759
0.01184094
0.01182853
0.01183141
0.01184953
0.01188188
0.01192677
0.01198204
0.01204553
0.01211545
0.01219082
0.01227184
0.01236031
0.01246012
0.0125775
0.01272072
0.01289416
0.013064
0.01304455
0.01288878
0.01273562
0.01261332
0.01251587
0.01243489
0.01236438
0.01230081
0.01224256
0.01218936
0.01214195
0.01210168
0.01207017
0.01204905
0.0120396
0.01204263
0.0120581
0.01208523
0.01212273
0.01216897
0.0122223
0.01228133
0.01234529
0.01241439
0.01249023
0.01257631
0.01267864
0.01280574
0.01296366
0.01312349
0.01310699
0.01296936
0.01283905
0.01273676
0.01265535
0.01258718
0.01252734
0.01247312
0.01242341
0.01237816
0.01233807
0.01230426
0.01227807
0.01226077
0.0122534
0.0122566
0.01227034
0.01229398
0.01232649
0.01236658
0.01241289
0.01246425
0.01251993
0.01257989
0.01264522
0.01271854
0.01280479
0.01291166
0.01304638
0.01318774
0.01317477
0.01306879
0.01297015
0.01289075
0.01282474
0.01276712
0.012715
0.01266696
0.01262258
0.01258217
0.01254647
0.01251655
0.01249357
0.01247861
0.01247255
0.01247594
0.01248875
0.01251042
0.01254009
0.01257667
0.01261894
0.01266581
0.01271647
0.01277054
0.01282834
0.01289123
0.01296203
0.01304573
0.01314822
0.0132573
0.01323771
0.01317512
0.01310815
0.01304695
0.01299088
0.0129388
0.01289
0.01284425
0.01280171
0.01276293
0.01272876
0.01270024
0.01267845
0.01266441
0.01265892
0.01266249
0.01267506
0.01269616
0.01272498
0.0127605
0.01280158
0.01284716
0.0128963
0.01294838
0.01300311
0.01306064
0.01312152
0.01318681
0.01325703
0.01332177
0.008519322
0.008503338
0.008482519
0.008460318
0.00843775
0.008415271
0.008393198
0.00837186
0.008351651
0.008333038
0.00831655
0.008302748
0.008292177
0.008285318
0.008282541
0.008284061
0.008289861
0.008299719
0.008313255
0.008329975
0.008349314
0.008370684
0.008393524
0.008417327
0.008441655
0.008466133
0.008490389
0.008513921
0.008535675
0.008552169
0.008503224
0.008478354
0.008448804
0.008420355
0.00839374
0.008368681
0.008344908
0.008322369
0.008301237
0.008281862
0.008264721
0.008250358
0.008239331
0.008232139
0.008229172
0.008230658
0.00823658
0.008246702
0.008260626
0.008277837
0.00829776
0.008319824
0.008343523
0.008368473
0.008394462
0.008421505
0.008449833
0.008479696
0.008510333
0.008535888
0.008482122
0.008448526
0.008408438
0.008371211
0.008338098
0.008308348
0.008281106
0.008255869
0.008232516
0.008211235
0.008192432
0.008176648
0.008164473
0.00815646
0.008153045
0.008154488
0.008160772
0.00817163
0.008186615
0.008205163
0.008226666
0.008250559
0.008276409
0.008304002
0.008333429
0.008365167
0.008400049
0.008438812
0.008480168
0.008514611
0.00845946
0.008419628
0.008370772
0.008325174
0.008285048
0.008249627
0.008217752
0.008188602
0.008161828
0.008137489
0.008115957
0.00809781
0.008083719
0.008074338
0.008070195
0.008071599
0.008078534
0.008090682
0.008107508
0.008128347
0.00815251
0.008179397
0.008208617
0.008240086
0.008274132
0.00831156
0.008353518
0.008400762
0.008451028
0.008491817
0.008436265
0.008392405
0.008337071
0.008284469
0.008237733
0.008196347
0.008159105
0.008125054
0.008093733
0.008065161
0.008039745
0.008018173
0.008001277
0.007989885
0.007984677
0.007986048
0.007993984
0.008008082
0.008027656
0.008051866
0.008079863
0.008110942
0.008144676
0.008181028
0.008220443
0.008263861
0.008312483
0.008366814
0.008423655
0.008468535
0.00841301
0.008366593
0.008306595
0.008248342
0.008195649
0.008148312
0.008105223
0.008065439
0.00802851
0.007994508
0.007963972
0.007937795
0.007917072
0.007902916
0.007896242
0.007897586
0.007906934
0.007923749
0.007947106
0.007975884
0.008008972
0.00804546
0.00808479
0.008126871
0.008172143
0.008221539
0.008276161
0.008336202
0.008397768
0.008445238
0.008390033
0.008341943
0.00827851
0.008215649
0.008157607
0.008104429
0.008055151
0.008008919
0.007965377
0.007924746
0.007887791
0.007855724
0.007830037
0.007812255
0.007803652
0.007804971
0.007816202
0.0078366
0.007864889
0.007899535
0.00793903
0.007982143
0.008028088
0.008076627
0.008128104
0.008183365
0.008243371
0.008308059
0.008373099
0.008422259
0.008367681
0.008318421
0.008252328
0.008185587
0.008122665
0.008063769
0.008008049
0.007954758
0.007903681
0.007855259
0.007810582
0.0077713
0.00773945
0.007717125
0.00770609
0.007707384
0.007720998
0.007745901
0.007780328
0.007822177
0.007869396
0.00792031
0.007973806
0.008029423
0.008087363
0.008148367
0.008213279
0.008281876
0.008349601
0.008399941
0.008346358
0.008296211
0.008227941
0.008157816
0.008090376
0.00802589
0.007963571
0.007902752
0.007843373
0.007786145
0.007732573
0.007684872
0.007645762
0.007618083
0.007604204
0.007605467
0.007621869
0.007652088
0.007693753
0.007744019
0.007800145
0.007859889
0.007921716
0.00798489
0.008049457
0.008116075
0.00818553
0.008257535
0.008327457
0.008378693
0.008326544
0.008275673
0.008205546
0.008132406
0.008060766
0.007990877
0.007921947
0.007853352
0.007785175
0.007718435
0.007655155
0.007598247
0.007551363
0.007518192
0.00750156
0.007502781
0.007521865
0.007557537
0.007606962
0.00766644
0.007732298
0.00780159
0.007872254
0.007943242
0.008014452
0.008086502
0.008160183
0.008235227
0.008307028
0.008358998
0.00830877
0.008257289
0.008185556
0.008109735
0.008034251
0.007959273
0.007883951
0.007807655
0.007730603
0.007654167
0.007580943
0.007514882
0.007461342
0.007424492
0.007406626
0.00740779
0.00742801
0.007467315
0.007523401
0.007592054
0.007667889
0.007746924
0.007826512
0.007905245
0.007982887
0.008060059
0.008137612
0.008215366
0.008288803
0.008341404
0.008293603
0.008241614
0.008168518
0.008090386
0.008011521
0.007931974
0.007850795
0.007767317
0.007681875
0.007596256
0.007513894
0.007441258
0.007386587
0.007350951
0.007332816
0.00733393
0.007354326
0.00739229
0.007449536
0.007524823
0.007609846
0.007698117
0.00778615
0.007872117
0.007955657
0.008037433
0.008118402
0.008198502
0.008273341
0.008326488
0.008281617
0.008229217
0.008155031
0.008075036
0.007993409
0.007910076
0.007823971
0.007734369
0.007641708
0.007548354
0.007459376
0.007385643
0.007331084
0.007292523
0.007272681
0.007273764
0.007295807
0.007336664
0.007393631
0.007470113
0.007561836
0.007657903
0.007753214
0.007845354
0.007933864
0.008019463
0.008103227
0.008185228
0.008261202
0.008314802
0.008273285
0.008220598
0.008145647
0.008064336
0.007980745
0.007894688
0.007804999
0.007710897
0.007612927
0.007514132
0.007421555
0.007349049
0.00729159
0.00725031
0.00722879
0.007229857
0.007253546
0.007297093
0.007356978
0.007432128
0.007527564
0.007629133
0.007729803
0.007826489
0.007918622
0.008006977
0.008092738
0.008176088
0.008252865
0.008306789
0.008268983
0.008216148
0.008140804
0.008058815
0.007974203
0.007886723
0.007795145
0.007698654
0.007597888
0.007496398
0.007402659
0.007329931
0.0072708
0.00722786
0.007205323
0.007206388
0.007231094
0.007276304
0.007337869
0.00741324
0.007509881
0.007614185
0.007717687
0.007816795
0.007910844
0.00800065
0.008087455
0.008171508
0.008248706
0.008302803
0.00826893
0.0082161
0.008140764
0.008058785
0.007974184
0.007886715
0.007795149
0.007698671
0.007597919
0.007496443
0.007402721
0.00733001
0.007270895
0.00722797
0.007205448
0.00720653
0.007231251
0.007276474
0.007338051
0.007413432
0.007510083
0.007614395
0.007717903
0.007817016
0.00791107
0.008000881
0.008087691
0.00817175
0.008248956
0.008303059
0.008273128
0.008220454
0.008145526
0.008064243
0.007980683
0.007894663
0.007805011
0.007710948
0.007613019
0.007514269
0.007421743
0.007349289
0.007291876
0.007250643
0.00722917
0.007230283
0.007254016
0.007297603
0.007357524
0.007432708
0.007528173
0.007629764
0.007730451
0.007827153
0.0079193
0.008007671
0.008093447
0.008176814
0.008253612
0.008307556
0.008281354
0.008228974
0.008154824
0.008074875
0.007993302
0.00791003
0.007823989
0.007734455
0.007641864
0.007548585
0.007459689
0.007386048
0.00733157
0.007293086
0.007273322
0.007274482
0.007296598
0.007337521
0.007394549
0.007471085
0.007562853
0.007658955
0.007754295
0.007846462
0.007934998
0.008020621
0.008104411
0.008186439
0.008262444
0.008316074
0.008293221
0.008241261
0.008168218
0.008090152
0.008011363
0.007931903
0.007850817
0.007767437
0.007682097
0.007596585
0.007514338
0.007441822
0.007387278
0.007351753
0.007333728
0.007334949
0.007355446
0.007393502
0.007450834
0.007526192
0.007611274
0.007699591
0.007787666
0.00787367
0.007957245
0.008039056
0.008120058
0.008200194
0.008275071
0.008328254
0.008308256
0.008256816
0.008185151
0.008109417
0.008034034
0.00795917
0.007883971
0.007807808
0.007730893
0.007654598
0.007581522
0.007515616
0.007462233
0.007425534
0.007407813
0.007409116
0.007429466
0.007468891
0.007525081
0.007593821
0.007669729
0.007748824
0.007828465
0.007907246
0.007984932
0.008062146
0.008139741
0.008217535
0.008291013
0.008343649
0.008325887
0.008275068
0.008205026
0.008131995
0.008060481
0.007990734
0.00792196
0.007853531
0.007785528
0.007718968
0.007655872
0.007599153
0.00755246
0.007519476
0.007503025
0.007504417
0.007523659
0.007559473
0.007609021
0.007668604
0.00773455
0.007803917
0.007874648
0.007945696
0.008016961
0.008089063
0.008162791
0.00823788
0.008309723
0.008361724
0.00834555
0.008295464
0.008227297
0.008157302
0.008090013
0.008025699
0.007963567
0.007902949
0.007843782
0.007786773
0.007733424
0.007685949
0.007647065
0.007619607
0.007605941
0.007607405
0.007623992
0.007654375
0.007696184
0.007746574
0.007802807
0.007862643
0.007924552
0.0079878
0.008052435
0.008119116
0.008188627
0.008260683
0.008330648
0.008381913
0.008366715
0.008317527
0.008251553
0.008184962
0.008122216
0.008063519
0.008008019
0.007954964
0.007904136
0.007855971
0.007811556
0.007772537
0.007740949
0.007718878
0.007708087
0.00770961
0.007723433
0.007748525
0.007783117
0.007825112
0.007872459
0.007923485
0.007977081
0.008032789
0.008090812
0.00815189
0.008216869
0.008285524
0.008353296
0.008403667
0.008388908
0.0083409
0.0082776
0.008214909
0.008157065
0.008104114
0.008055086
0.008009124
0.007965865
0.007925528
0.007888872
0.007857105
0.007831713
0.007814219
0.007805889
0.007807465
0.007818931
0.007839541
0.007868021
0.007902835
0.007942479
0.007985725
0.00803179
0.008080438
0.008132013
0.008187363
0.008247448
0.008312204
0.008377297
0.008426491
0.008411731
0.008365404
0.008305551
0.008247484
0.008195012
0.008147926
0.008105114
0.008065631
0.008029019
0.007995345
0.007965143
0.0079393
0.007918906
0.007905067
0.007898695
0.007900323
0.007909932
0.007926984
0.007950555
0.007979525
0.008012785
0.008049427
0.008088897
0.008131106
0.008176494
0.008225995
0.008280709
0.008340828
0.008402455
0.008449963
0.008434844
0.008391078
0.008335899
0.008283496
0.008236998
0.008195886
0.008158947
0.008125225
0.008094251
0.008066039
0.008040989
0.008019781
0.008003243
0.007992198
0.007987319
0.007988999
0.007997221
0.00801158
0.008031392
0.008055815
0.008084006
0.008115261
0.008149156
0.008185654
0.008225202
0.00826874
0.008317467
0.008371887
0.008428796
0.008473718
0.008457915
0.00841818
0.008369484
0.008324094
0.008284219
0.00824909
0.00821754
0.008188744
0.008162344
0.008138393
0.008117254
0.008099499
0.008085793
0.008076784
0.008072995
0.008074732
0.008081975
0.008094407