/*--------------------------------*- C++ -*----------------------------------*\
| =========                 |                                                 |
| \\      /  F ield         | OpenFOAM: The Open Source CFD Toolbox           |
|  \\    /   O peration     | Version:  2506                                  |
|   \\  /    A nd           | Website:  www.openfoam.com                      |
|    \\/     M anipulation  |                                                 |
\*---------------------------------------------------------------------------*/
FoamFile
{
    version     2.0;
    format      ascii;
    arch        "LSB;label=32;scalar=64";
    class       volScalarField;
    location    "4000/air";
    object      k;
}
// * * * * * * * * * * * * * * * * * * * * * * * * * * * * * * * * * * * * * //

dimensions      [0 2 -2 0 0 0 0];

internalField   nonuniform List<scalar> 
33752
(
0.05883722
0.05832966
0.05787892
0.05753259
0.0572532
0.05701798
0.05681399
0.05663338
0.05647214
0.05632911
0.05620519
0.0561027
0.05602468
0.05597418
0.05595369
0.05596492
0.0560077
0.05608047
0.05618078
0.05630557
0.0564517
0.05661672
0.05679955
0.05700114
0.05722526
0.05747953
0.05777676
0.0581398
0.05860665
0.05912857
0.05832721
0.05754234
0.05693504
0.05651002
0.05619043
0.05593409
0.05571778
0.05552854
0.05535994
0.05520987
0.05507902
0.05496995
0.05488611
0.054831
0.05480752
0.05481793
0.05486203
0.05493769
0.05504215
0.05517185
0.05532328
0.05549379
0.0556825
0.05589138
0.05612667
0.05640126
0.05673841
0.05718077
0.0578063
0.05860952
0.05787288
0.05693146
0.05618397
0.05566362
0.05528176
0.05498338
0.05473626
0.05452193
0.05433111
0.05416043
0.05401047
0.05388428
0.05378619
0.05372064
0.05369132
0.05370093
0.05374933
0.05383391
0.05395112
0.0540965
0.05426567
0.05445548
0.05466525
0.05489819
0.05516352
0.0554797
0.05587922
0.05641768
0.05718508
0.05814699
0.0575218
0.05650191
0.05565923
0.05505758
0.05461086
0.05426067
0.05397022
0.05371744
0.0534909
0.05328646
0.05310501
0.05295071
0.05282937
0.05274705
0.05270868
0.05271765
0.05277383
0.05287398
0.05301326
0.05318566
0.0533853
0.05360796
0.05385266
0.05412344
0.05443169
0.05479957
0.05526416
0.05588458
0.05674824
0.05778971
0.05723656
0.05617687
0.0552722
0.0546058
0.05409738
0.05369015
0.05334654
0.05304305
0.05276728
0.05251512
0.05228852
0.05209356
0.0519385
0.05183185
0.05178054
0.05178896
0.05185701
0.05198046
0.05215252
0.05236471
0.05260876
0.05287851
0.05317194
0.05349309
0.05385433
0.05427929
0.05480582
0.05549143
0.05641774
0.05749958
0.05699454
0.05591428
0.05496798
0.05424999
0.05368461
0.05321787
0.0528134
0.05244799
0.0521096
0.05179513
0.05150853
0.05125888
0.05105809
0.05091832
0.05084945
0.05085736
0.05094199
0.05109766
0.05131464
0.05158083
0.05188431
0.05221595
0.05257172
0.05295463
0.05337671
0.05386125
0.05444495
0.05518248
0.05615083
0.05725357
0.05678296
0.05569105
0.05471447
0.05395346
0.0533351
0.05280757
0.05233604
0.05189849
0.05148429
0.05109244
0.05072998
0.0504102
0.05015013
0.04996719
0.04987541
0.04988281
0.04998941
0.05018741
0.05046292
0.05079865
0.05117757
0.05158633
0.05201777
0.05247279
0.05296199
0.05350745
0.05414431
0.0549251
0.05592405
0.05703866
0.05659413
0.05549434
0.0544933
0.05369427
0.05302546
0.05243617
0.05189256
0.05137385
0.0508714
0.05038731
0.04993285
0.04952677
0.04919386
0.04895689
0.04883553
0.04884248
0.04897772
0.04922883
0.04957646
0.04999799
0.05046858
0.05096943
0.05148912
0.05202536
0.05258675
0.05319412
0.05388163
0.05470069
0.05572437
0.05684707
0.05642413
0.05531783
0.05429528
0.05346104
0.05274336
0.0520917
0.05147244
0.05086556
0.05026452
0.04967542
0.04911463
0.04860849
0.04818732
0.04788315
0.04772476
0.04773126
0.04790259
0.04822004
0.04865515
0.04917618
0.04975289
0.0503587
0.05097705
0.05160162
0.05223884
0.05290879
0.05364541
0.05449994
0.05554542
0.0566749
0.0562718
0.05515942
0.0541171
0.0532497
0.05248475
0.05177112
0.05107473
0.05037579
0.04966986
0.04896636
0.04829287
0.04768219
0.0471646
0.0467851
0.04658452
0.04659049
0.04680302
0.04719501
0.04772583
0.04835082
0.04904003
0.04976031
0.05048372
0.05120057
0.05191517
0.05264737
0.05343154
0.05431956
0.0553852
0.05652116
0.0561379
0.05501984
0.05395935
0.05306117
0.0522516
0.05147839
0.0507065
0.04991587
0.04910383
0.04828785
0.04750229
0.04676385
0.04612602
0.04567188
0.04545529
0.04546047
0.04568747
0.04615392
0.04680456
0.0475569
0.04835775
0.04919073
0.0500205
0.05082934
0.05161976
0.05241186
0.05324101
0.05416025
0.05524462
0.05638703
0.05602426
0.05490158
0.0538251
0.05289957
0.05204994
0.05122255
0.05038098
0.04950447
0.04859283
0.04767257
0.04675932
0.04588387
0.04521976
0.04474985
0.04450072
0.04450539
0.04476393
0.04524403
0.04592165
0.04681101
0.04773927
0.0486765
0.04960624
0.05050133
0.05136179
0.05220844
0.05307808
0.05402525
0.05512652
0.0562753
0.05593596
0.05480851
0.05371874
0.05277073
0.051888
0.05101542
0.0501151
0.04916627
0.04816694
0.04715054
0.04611733
0.04521605
0.04449387
0.04396053
0.04367505
0.04367936
0.04397354
0.04451643
0.04524963
0.04616646
0.0472148
0.04824805
0.04926587
0.05023368
0.05115329
0.05204552
0.05294876
0.05391918
0.05503496
0.05618997
0.05587444
0.05474378
0.05364461
0.0526806
0.05177418
0.05086905
0.04992611
0.04892383
0.04785785
0.04676645
0.04565985
0.04474262
0.0439572
0.04337181
0.04305671
0.04306081
0.04338415
0.0439787
0.04477486
0.0457051
0.0468293
0.04793741
0.04902219
0.05004379
0.05100643
0.05193159
0.05285896
0.05384594
0.05497191
0.05613149
0.05584291
0.05471036
0.0536063
0.05263399
0.05171526
0.05079315
0.04982787
0.04879654
0.04769409
0.046561
0.04543916
0.04448986
0.04366842
0.04305357
0.04272115
0.04272522
0.04306573
0.04368959
0.04452172
0.04548398
0.04662341
0.04777322
0.04889465
0.04994549
0.0509307
0.05187305
0.05281299
0.05380857
0.0549399
0.05610211
0.05584296
0.0547105
0.0536065
0.05263424
0.05171556
0.0507935
0.04982823
0.04879694
0.04769449
0.04656145
0.04543969
0.04449046
0.0436691
0.04305433
0.04272201
0.04272619
0.04306678
0.04369071
0.04452288
0.04548517
0.04662465
0.04777444
0.04889586
0.0499467
0.0509319
0.05187426
0.05281421
0.05380982
0.05494122
0.05610357
0.05587455
0.05474413
0.05364516
0.0526813
0.05177503
0.05087003
0.04992722
0.04892502
0.0478591
0.04676784
0.04566147
0.04474447
0.04395927
0.04337414
0.04305932
0.04306372
0.0433873
0.04398203
0.04477832
0.04570866
0.04683296
0.04794105
0.04902579
0.05004741
0.05101008
0.05193527
0.0528627
0.05384976
0.05497589
0.05613591
0.05593642
0.05480902
0.05371954
0.05277179
0.05188931
0.05101698
0.05011692
0.04916827
0.0481691
0.04715291
0.04612001
0.04521924
0.04449745
0.04396453
0.0436795
0.04368426
0.04397881
0.04452198
0.0452554
0.04617245
0.04722083
0.04825402
0.0492718
0.05023967
0.05115938
0.05205169
0.05295505
0.05392556
0.05504127
0.05619707
0.05602448
0.05490209
0.05382599
0.05290084
0.05205159
0.05122458
0.05038342
0.0495073
0.04859595
0.04767598
0.04676319
0.04588833
0.04522497
0.04475563
0.04450709
0.04451234
0.04477136
0.04525185
0.04592986
0.04681933
0.0477476
0.04868469
0.04961434
0.05050945
0.05136994
0.05221658
0.05308629
0.05403355
0.05513503
0.05628453
0.05613761
0.05502002
0.05396007
0.05306243
0.0522534
0.05148076
0.05070945
0.04991942
0.04910796
0.04829245
0.0475075
0.04676986
0.04613285
0.0456795
0.04546365
0.04546954
0.04569713
0.04616414
0.04681505
0.0475675
0.04836827
0.04920106
0.05003065
0.05083933
0.05162957
0.05242147
0.05325048
0.05416967
0.05525416
0.05639704
0.05627069
0.05515897
0.05411737
0.0532507
0.05248651
0.05177366
0.05107809
0.05037998
0.04967488
0.04897224
0.04829951
0.04768974
0.04717313
0.04679462
0.04659499
0.04660181
0.046815
0.04720746
0.04773856
0.0483636
0.04905267
0.04977275
0.05049587
0.0512124
0.05192662
0.05265844
0.05344228
0.05433008
0.05539567
0.05653184
0.0564219
0.05531642
0.0542948
0.05346151
0.05274482
0.05209421
0.05147604
0.05087027
0.05027035
0.04968237
0.04912271
0.04861766
0.04819761
0.04789454
0.04773721
0.04774464
0.04791669
0.04823463
0.04866999
0.04919105
0.04976765
0.05037319
0.05099116
0.05161525
0.05225194
0.05292135
0.05365746
0.05451161
0.05555687
0.05668637
0.05659048
0.0554917
0.05449179
0.05369394
0.05302639
0.05243844
0.05189622
0.05137893
0.0508779
0.05039522
0.04994216
0.04953747
0.04920584
0.04897011
0.04884989
0.04885782
0.04899381
0.04924543
0.04959332
0.05001491
0.05048537
0.05098589
0.05150508
0.05204073
0.05260143
0.05320811
0.05389498
0.0547135
0.05573679
0.05685938
0.05677765
0.05568691
0.05471167
0.0539521
0.05333528
0.05280939
0.05233957
0.05190376
0.05149131
0.05110117
0.05074038
0.05042222
0.05016367
0.0499821
0.04989154
0.0499
0.05000738
0.05020591
0.05048174
0.05081752
0.05119626
0.05160462
0.05203547
0.05248976
0.05297815
0.05352278
0.05415887
0.054939
0.05593748
0.0570519
0.05698739
0.05590846
0.05496371
0.0542474
0.05368385
0.05321906
0.05281663
0.0524533
0.05211698
0.05180453
0.05151988
0.05127207
0.05107299
0.05093475
0.05086722
0.05087622
0.05096171
0.05111796
0.05133526
0.05160148
0.05190473
0.05223589
0.05259097
0.05297305
0.0533942
0.0538778
0.0544606
0.05519737
0.05616516
0.05726766
0.05722751
0.05616929
0.05526635
0.05460187
0.05409555
0.05369057
0.05334932
0.05304823
0.05277485
0.05252501
0.05230063
0.05210773
0.05195456
0.0518496
0.05179973
0.05180932
0.05187827
0.05200233
0.05217469
0.0523869
0.05263066
0.05289987
0.05319254
0.05351277
0.05387298
0.05429687
0.0548224
0.05550714
0.05643281
0.05751435
0.05751092
0.0564926
0.05565181
0.05505226
0.05460788
0.05426023
0.05397243
0.05372237
0.05349851
0.05329667
0.05311767
0.05296564
0.05284636
0.05276585
0.05272902
0.05273924
0.05279636
0.05289713
0.05303672
0.0532091
0.05340843
0.0536305
0.05387438
0.05414415
0.05445128
0.054818
0.05528148
0.05590093
0.05676386
0.05780497
0.05786036
0.05692054
0.05617502
0.05565692
0.0552776
0.054982
0.05473781
0.05452646
0.05433858
0.05417074
0.05402345
0.05389971
0.05380382
0.05374021
0.0537125
0.05372343
0.05377282
0.05385804
0.05397556
0.05412091
0.05428975
0.05447894
0.05468783
0.05491971
0.05518384
0.05549878
0.05589708
0.05643448
0.05720106
0.05816254
0.05831331
0.05752997
0.05692463
0.05650195
0.05618506
0.05593171
0.05571856
0.05553253
0.0553671
0.05522006
0.05509206
0.0549856
0.05490409
0.05485102
0.05482925
0.05484102
0.05488615
0.05496249
0.05506726
0.05519694
0.05534803
0.05551789
0.0557057
0.05591347
0.05614751
0.05642078
0.05675664
0.05719784
0.05782246
0.05862517
0.0588223
0.05831603
0.05786719
0.05752325
0.0572467
0.05701463
0.05681397
0.05663676
0.05647887
0.05633903
0.05621811
0.05611835
0.05604277
0.05599438
0.05597568
0.05598834
0.05603219
0.05610566
0.05620631
0.05633109
0.05647687
0.05664125
0.05682316
0.05702361
0.05724644
0.05749935
0.05779523
0.05815705
0.0586229
0.05914424
0.1066643
0.106497
0.1062451
0.1059673
0.1056847
0.105405
0.1051322
0.1048692
0.1046195
0.1043883
0.1041818
0.1040074
0.1038725
0.1037838
0.1037467
0.1037642
0.1038362
0.1039595
0.1041291
0.1043379
0.1045783
0.1048429
0.1051249
0.1054187
0.1057203
0.1060262
0.1063316
0.1066279
0.1068933
0.1070675
0.1064955
0.1061851
0.1058191
0.1054697
0.105143
0.1048347
0.104541
0.1042608
0.1039958
0.1037502
0.1035303
0.1033438
0.1031989
0.103103
0.1030619
0.1030789
0.1031538
0.1032834
0.1034619
0.1036817
0.1039346
0.1042126
0.104509
0.1048192
0.105141
0.1054751
0.1058245
0.1061934
0.1065749
0.1068954
0.1062398
0.1058153
0.1053276
0.1048834
0.1044866
0.1041243
0.1037861
0.1034665
0.1031648
0.1028846
0.1026326
0.1024176
0.1022493
0.1021366
0.1020863
0.1021026
0.1021854
0.1023306
0.1025313
0.1027784
0.1030622
0.1033737
0.1037059
0.1040547
0.1044204
0.1048082
0.1052281
0.1056929
0.1061983
0.106635
0.1059561
0.1054602
0.1048778
0.1043452
0.1038718
0.1034422
0.1030423
0.1026641
0.1023056
0.1019706
0.1016671
0.1014061
0.1011999
0.10106
0.1009953
0.101011
0.101107
0.1012781
0.1015155
0.1018075
0.1021419
0.1025073
0.1028955
0.1033023
0.1037293
0.1041844
0.1046813
0.1052353
0.1058368
0.1063462
0.1056656
0.105126
0.1044738
0.1038647
0.1033148
0.1028096
0.1023343
0.1018798
0.1014445
0.1010334
0.1006573
0.1003309
0.1000705
0.09989158
0.09980623
0.09982134
0.09993682
0.1001458
0.1004364
0.1007929
0.101199
0.1016398
0.1021042
0.1025869
0.1030892
0.1036199
0.1041936
0.1048247
0.105497
0.1060507
0.1053766
0.1048087
0.1041029
0.1034267
0.1028014
0.1022142
0.101651
0.1011034
0.1005709
0.1000614
0.09958973
0.09917614
0.09884299
0.09861151
0.09849833
0.09851286
0.09865501
0.09891552
0.09927786
0.09972079
0.1002218
0.1007605
0.1013216
0.1018972
0.1024872
0.1030999
0.1037493
0.1044481
0.1051744
0.1057567
0.1050932
0.1045048
0.103755
0.1030175
0.1023168
0.1016419
0.1009795
0.1003224
0.09967233
0.09904107
0.09844933
0.09792473
0.09749807
0.09719862
0.09704939
0.0970633
0.09724031
0.09756771
0.09802264
0.09857585
0.09919641
0.09985646
0.100535
0.1012199
0.1019091
0.1026096
0.1033345
0.1040949
0.1048655
0.1054685
0.1048186
0.1042135
0.1034247
0.102629
0.1018524
0.1010845
0.1003127
0.09953097
0.09874378
0.09796761
0.09723054
0.09656983
0.09602732
0.09564295
0.0954484
0.09546165
0.09568271
0.09609391
0.09666378
0.09735243
0.09811789
0.09892262
0.09973818
0.1005477
0.1013464
0.10214
0.1029411
0.1037598
0.1045696
0.1051894
0.1045565
0.1039365
0.1031116
0.1022596
0.1014066
0.1005418
0.09965267
0.09873388
0.09779255
0.09685051
0.09594439
0.09512299
0.09444154
0.09395396
0.09370377
0.09371629
0.09399163
0.09450484
0.09521272
0.09606145
0.09699564
0.09796614
0.09893589
0.09988261
0.1007988
0.1016895
0.1025672
0.1034424
0.1042885
0.1049232
0.104312
0.1036781
0.1028193
0.1019131
0.1009845
0.1000217
0.09901116
0.0979477
0.09684064
0.09571712
0.09462297
0.09361925
0.09277636
0.09216607
0.09184743
0.09185914
0.09220144
0.09283623
0.09370457
0.09473505
0.09585704
0.09700908
0.09814474
0.09923637
0.1002742
0.1012632
0.1022167
0.1031465
0.1040268
0.1046755
0.1040915
0.1034449
0.1025547
0.1015976
0.100597
0.09953922
0.09840898
0.09720058
0.09592478
0.09461342
0.09331976
0.09211395
0.09108468
0.09032473
0.0899137
0.08992467
0.09035797
0.09114078
0.09219492
0.09342696
0.09474829
0.09608831
0.09739301
0.09862992
0.09978781
0.1008721
0.1018979
0.1028789
0.1037909
0.1044527
0.1039022
0.1032444
0.1023266
0.1013243
0.1002588
0.09911442
0.09787373
0.09652976
0.09509377
0.09360045
0.09210486
0.09068709
0.08943457
0.08853077
0.08805573
0.08806566
0.08856115
0.08948689
0.09076358
0.09220775
0.09373079
0.09525293
0.09671819
0.09809108
0.0993598
0.1005311
0.1016221
0.1026487
0.103589
0.1042625
0.1037522
0.1030851
0.1021446
0.1011051
0.09998619
0.09876966
0.09743611
0.09597695
0.09440265
0.09274847
0.09106682
0.08942625
0.08802824
0.08700613
0.08646723
0.08647633
0.08703419
0.08807726
0.08949892
0.09116608
0.09287522
0.09455838
0.09616229
0.09765078
0.09901275
0.1002565
0.1014014
0.1024656
0.1034291
0.1041125
0.1036477
0.102974
0.1020175
0.1009516
0.09979441
0.09852601
0.09712521
0.09558186
0.09390509
0.09212869
0.09029809
0.08851458
0.08699869
0.0858864
0.08529799
0.08530651
0.08591282
0.08704529
0.08858467
0.09039559
0.09225352
0.09405871
0.09576533
0.09733834
0.0987679
0.1000638
0.1012473
0.1023383
0.1033183
0.1040089
0.1035942
0.1029171
0.1019522
0.1008726
0.09969546
0.09839993
0.09696381
0.09537591
0.09364431
0.0918003
0.08987817
0.08803161
0.0864526
0.08529119
0.08467561
0.08468389
0.08531691
0.08649819
0.08810064
0.08997467
0.09192438
0.09379728
0.09555892
0.09717668
0.09864175
0.09996499
0.1011686
0.1022736
0.1032622
0.1039564
0.1035946
0.1029175
0.1019527
0.1008732
0.09969612
0.09840068
0.09696465
0.09537685
0.09364535
0.09180143
0.08987938
0.08803297
0.08645409
0.08529282
0.08467739
0.0846858
0.08531891
0.08650026
0.08810274
0.08997679
0.09192646
0.09379933
0.09556092
0.09717863
0.09864364
0.09996681
0.1011704
0.1022753
0.1032639
0.1039582
0.1036488
0.1029752
0.1020189
0.1009533
0.09979633
0.09852821
0.0971277
0.09558465
0.09390818
0.09213209
0.09030176
0.08851868
0.08700321
0.08589135
0.08530335
0.08531225
0.08591884
0.0870515
0.08859098
0.09040191
0.09225976
0.09406483
0.09577131
0.09734414
0.09877351
0.1000693
0.1012526
0.1023435
0.1033235
0.1040142
0.1037538
0.1030869
0.1021467
0.1011077
0.09998919
0.09877316
0.09744015
0.09598152
0.09440778
0.09275418
0.09107312
0.08943318
0.08803587
0.08701447
0.08647624
0.08648593
0.08704424
0.08808761
0.0895094
0.09117653
0.09288557
0.09456853
0.09617216
0.09766033
0.09902198
0.1002654
0.10141
0.1024741
0.1034375
0.1041212
0.1039039
0.1032464
0.1023291
0.1013274
0.1002627
0.09911901
0.09787914
0.09653602
0.09510088
0.09360844
0.09211379
0.09069693
0.08944539
0.08854256
0.08806843
0.08807916
0.08857523
0.08950135
0.09077817
0.09222231
0.09374519
0.09526699
0.09673181
0.0981042
0.09937239
0.1005431
0.1016337
0.10266
0.1036002
0.1042739
0.1040927
0.1034466
0.1025571
0.1016009
0.1006013
0.0995446
0.09841553
0.09720835
0.09593379
0.09462367
0.0933313
0.0921268
0.09109878
0.09033999
0.08993011
0.08994205
0.09037608
0.0911593
0.09221362
0.09344561
0.09476665
0.09610617
0.09741022
0.09864639
0.0998035
0.100887
0.1019122
0.1028926
0.1038044
0.1044662
0.1043122
0.1036789
0.1028211
0.1019161
0.1009888
0.1000275
0.09901857
0.09795676
0.09685139
0.09572956
0.09463709
0.09363502
0.09279373
0.09218492
0.09186761
0.09188041
0.09222351
0.09285879
0.09372731
0.09475765
0.09587921
0.09703057
0.09816536
0.09925599
0.1002928
0.1012807
0.1022333
0.1031623
0.1040422
0.1046908
0.104555
0.1039358
0.1031122
0.1022617
0.1014105
0.1005477
0.09966061
0.09874397
0.09780483
0.09686497
0.09596098
0.09514162
0.09446209
0.09397627
0.0937276
0.09374135
0.09401758
0.09453131
0.09523933
0.09608783
0.09702144
0.09799108
0.09895972
0.09990518
0.10082
0.1017094
0.1025859
0.1034602
0.1043056
0.1049401
0.1048148
0.1042107
0.1034235
0.1026298
0.1018554
0.10109
0.1003208
0.0995418
0.09875734
0.09798386
0.09724939
0.09659114
0.09605089
0.09566854
0.0954757
0.09549031
0.09571234
0.09612406
0.09669402
0.09738235
0.09814708
0.09895075
0.09976498
0.100573
0.1013701
0.1021621
0.1029617
0.1037792
0.1045882
0.1052075
0.1050867
0.1044995
0.1037516
0.1030164
0.1023185
0.1016466
0.1009874
0.1003336
0.09968688
0.09905884
0.09847017
0.09794844
0.09752438
0.09722722
0.09707989
0.09709529
0.09727332
0.09760125
0.09805622
0.098609
0.0992287
0.0998875
0.1005644
0.1012476
0.101935
0.1026336
0.1033568
0.1041157
0.1048854
0.1054878
0.105367
0.1048005
0.1040969
0.1034235
0.1028014
0.1022179
0.1016585
0.1011147
0.1005861
0.1000804
0.09961227
0.09920194
0.09887172
0.09864277
0.09853168
0.09854779
0.09869101
0.09895206
0.0993144
0.0997568
0.1002568
0.1007941
0.1013535
0.101927
0.102515
0.1031255
0.103773
0.1044701
0.1051952
0.105777
0.1056528
0.1051148
0.104465
0.1038592
0.1033131
0.102812
0.102341
0.1018911
0.1014602
0.1010533
0.1006812
0.1003584
0.1001013
0.09992511
0.09984199
0.0998588
0.0999754
0.100185
0.1004754
0.1008314
0.1012364
0.1016756
0.1021381
0.1026185
0.1031185
0.1036468
0.1042184
0.1048477
0.1055187
0.1060717
0.1059401
0.1054459
0.1048663
0.1043373
0.1038682
0.1034432
0.1030483
0.1026751
0.1023215
0.1019911
0.101692
0.101435
0.1012323
0.1010953
0.101033
0.1010505
0.1011477
0.1013194
0.1015566
0.101848
0.1021811
0.1025449
0.1029309
0.1033354
0.1037599
0.1042124
0.104707
0.105259
0.105859
0.1063677
0.106221
0.1057984
0.1053137
0.1048733
0.1044811
0.104124
0.1037912
0.103477
0.1031806
0.1029055
0.1026582
0.1024475
0.1022829
0.1021732
0.1021255
0.1021437
0.1022277
0.1023734
0.102574
0.1028204
0.1031029
0.1034126
0.1037426
0.1040889
0.1044519
0.104837
0.1052544
0.105717
0.1062208
0.1066567
0.1064747
0.1061661
0.1058031
0.1054578
0.105136
0.1048331
0.1045451
0.1042708
0.1040114
0.1037712
0.1035562
0.1033743
0.1032332
0.1031406
0.1031021
0.103121
0.1031972
0.1033273
0.1035057
0.1037247
0.1039763
0.1042524
0.1045465
0.1048541
0.1051731
0.1055044
0.1058512
0.1062178
0.1065976
0.1069172
0.1066424
0.1064767
0.1062278
0.1059543
0.1056766
0.1054026
0.1051357
0.1048787
0.1046349
0.1044093
0.1042079
0.1040381
0.1039071
0.1038219
0.1037874
0.1038069
0.1038801
0.104004
0.1041734
0.1043815
0.1046206
0.1048833
0.1051629
0.1054541
0.1057528
0.1060558
0.1063585
0.1066525
0.1069161
0.1070894
0.1252762
0.1251901
0.1250352
0.1248333
0.1246019
0.1243533
0.1240961
0.1238373
0.1235841
0.1233445
0.1231273
0.122942
0.1227978
0.1227028
0.1226632
0.1226823
0.1227601
0.122893
0.1230749
0.1232975
0.1235513
0.1238266
0.1241141
0.1244054
0.1246925
0.1249677
0.1252215
0.125441
0.1256078
0.1256997
0.1251882
0.125057
0.1248513
0.124607
0.1243423
0.1240667
0.1237863
0.1235064
0.1232333
0.1229749
0.1227403
0.1225397
0.1223829
0.1222789
0.1222345
0.1222534
0.1223355
0.1224769
0.1226709
0.1229084
0.1231792
0.1234729
0.1237799
0.1240919
0.124402
0.1247042
0.1249915
0.125254
0.1254724
0.1256102
0.1250293
0.1248474
0.1245731
0.1242633
0.1239413
0.1236153
0.123289
0.1229658
0.1226512
0.1223531
0.1220816
0.1218483
0.1216648
0.1215418
0.1214873
0.1215058
0.1215972
0.1217569
0.1219769
0.1222463
0.1225534
0.1228862
0.1232342
0.1235891
0.1239449
0.1242975
0.1246425
0.124971
0.1252591
0.1254485
0.1248214
0.124597
0.1242574
0.1238771
0.1234863
0.1230942
0.1227036
0.1223169
0.1219397
0.1215806
0.1212516
0.120967
0.1207414
0.1205883
0.1205179
0.120536
0.1206423
0.1208313
0.1210925
0.1214125
0.1217763
0.1221695
0.1225797
0.1229977
0.1234176
0.1238362
0.1242503
0.1246501
0.1250043
0.1252368
0.1245821
0.1243244
0.1239276
0.1234786
0.1230138
0.1225446
0.122074
0.1216049
0.1211436
0.1207008
0.120292
0.1199353
0.1196502
0.1194544
0.1193614
0.119379
0.1195069
0.1197377
0.1200576
0.1204488
0.1208918
0.1213681
0.121862
0.1223621
0.1228618
0.1233576
0.123846
0.1243149
0.1247269
0.124993
0.1243239
0.1240394
0.1235924
0.1230774
0.1225355
0.1219802
0.1214155
0.1208454
0.1202781
0.1197277
0.1192143
0.1187624
0.1183979
0.1181448
0.1180216
0.1180386
0.1181957
0.1184828
0.1188812
0.119367
0.119914
0.1204974
0.1210969
0.1216978
0.1222915
0.1228735
0.1234391
0.1239742
0.1244368
0.1247299
0.1240557
0.1237482
0.1232554
0.1226764
0.1220547
0.1214054
0.1207335
0.1200444
0.119349
0.1186659
0.1180217
0.117449
0.1169829
0.1166561
0.1164938
0.1165103
0.1167053
0.1170651
0.1175642
0.1181701
0.1188474
0.1195632
0.1202905
0.1210102
0.121711
0.122387
0.1230325
0.123632
0.1241404
0.1244567
0.1237849
0.1234564
0.1229207
0.1222784
0.1215745
0.1208243
0.1200335
0.1192089
0.1183643
0.1175236
0.1167215
0.1160011
0.1154096
0.1149911
0.1147801
0.1147959
0.1150384
0.1154887
0.1161124
0.1168652
0.1177
0.1185731
0.1194496
0.1203048
0.1211244
0.1219014
0.1226293
0.123292
0.1238436
0.1241808
0.1235187
0.1231706
0.1225936
0.121889
0.1211013
0.1202453
0.1193267
0.118353
0.1173408
0.1163199
0.1153345
0.1144403
0.1136993
0.1131705
0.1129005
0.1129156
0.1132157
0.113775
0.1145473
0.1154733
0.1164911
0.1175443
0.1185882
0.1195926
0.1205403
0.121423
0.1222348
0.12296
0.123553
0.1239099
0.1232652
0.1228986
0.1222823
0.1215171
0.1206461
0.1196828
0.1186318
0.1175007
0.1163085
0.1150908
0.1139017
0.1128112
0.1118987
0.1112419
0.1109029
0.1109171
0.1112847
0.1119709
0.1129136
0.1140355
0.1152567
0.1165067
0.1177308
0.1188927
0.1199729
0.1209632
0.1218583
0.1226443
0.1232767
0.1236522
0.1230335
0.1226497
0.1219969
0.1211747
0.1202243
0.1191569
0.1179754
0.1166868
0.1153116
0.1138904
0.1124867
0.1111849
0.1100836
0.1092829
0.1088657
0.1088791
0.1093233
0.110152
0.1112827
0.1126154
0.1140511
0.1155046
0.116912
0.1182318
0.1194427
0.1205372
0.121512
0.1223552
0.1230242
0.123417
0.1228329
0.122434
0.1217491
0.1208761
0.1198541
0.118692
0.1173903
0.1159545
0.1144059
0.1127889
0.1111741
0.1096587
0.1083581
0.1073997
0.1069011
0.1069136
0.1074377
0.1084231
0.1097521
0.111298
0.1129448
0.1145944
0.1161755
0.1176427
0.1189742
0.1201637
0.1212103
0.1221044
0.1228058
0.1232138
0.1226727
0.1222616
0.1215504
0.1206359
0.1195549
0.118314
0.1169113
0.1153508
0.1136533
0.1118655
0.1100623
0.1083479
0.1068662
0.1057869
0.1052212
0.1052327
0.1058224
0.1069278
0.1084379
0.1101824
0.1120175
0.1138382
0.1155684
0.1171607
0.1185935
0.119862
0.1209678
0.1219037
0.1226316
0.123052
0.1225611
0.1221412
0.1214114
0.1204673
0.1193443
0.1180467
0.116571
0.1149195
0.1131126
0.1111975
0.1092512
0.1073797
0.1057775
0.1046052
0.1039885
0.1039994
0.104639
0.1058364
0.1074669
0.1093686
0.1113469
0.1132951
0.1151351
0.1168186
0.1183246
0.11965
0.1207981
0.1217637
0.1225103
0.1229396
0.1225039
0.1220796
0.1213401
0.1203807
0.1192357
0.1179085
0.1163945
0.1146951
0.1128301
0.1108468
0.1088232
0.1068711
0.1052027
0.1039797
0.1033351
0.1033458
0.1040128
0.1052605
0.1069572
0.1089396
0.1109953
0.1130118
0.11491
0.1166416
0.1181861
0.1195412
0.1207113
0.1216924
0.1224488
0.1228826
0.1225046
0.1220803
0.1213409
0.1203816
0.1192367
0.1179096
0.1163957
0.1146964
0.1128316
0.1108484
0.108825
0.106873
0.1052047
0.1039819
0.1033375
0.1033483
0.1040153
0.1052631
0.1069598
0.1089421
0.1109979
0.1130143
0.1149124
0.1166439
0.1181882
0.1195432
0.1207132
0.1216942
0.1224505
0.1228844
0.122563
0.1221433
0.1214137
0.1204699
0.1193471
0.1180499
0.1165746
0.1149235
0.113117
0.1112023
0.1092564
0.1073853
0.1057836
0.1046118
0.1039955
0.1040068
0.1046466
0.1058442
0.1074747
0.1093763
0.1113545
0.1133025
0.1151421
0.1168252
0.1183308
0.1196559
0.1208037
0.121769
0.1225155
0.1229448
0.1226757
0.1222647
0.1215538
0.1206398
0.1195594
0.1183191
0.1169171
0.1153572
0.1136605
0.1118734
0.110071
0.1083574
0.1068765
0.1057979
0.1052329
0.1052451
0.1058351
0.1069408
0.1084509
0.1101952
0.11203
0.1138503
0.11558
0.1171717
0.1186037
0.1198717
0.1209769
0.1219124
0.12264
0.1230603
0.1228363
0.1224377
0.1217532
0.120881
0.1198599
0.1186987
0.117398
0.1159633
0.1144159
0.1127999
0.1111863
0.109672
0.1083726
0.1074153
0.1069176
0.1069308
0.1074555
0.1084412
0.1097703
0.1113159
0.1129622
0.1146112
0.1161914
0.1176577
0.1189882
0.1201768
0.1212226
0.1221161
0.1228171
0.1232249
0.1230367
0.1226533
0.1220013
0.1211801
0.1202308
0.1191648
0.1179848
0.1166977
0.115324
0.1139044
0.1125024
0.111202
0.1101023
0.1093029
0.1088869
0.1089013
0.1093461
0.1101752
0.1113058
0.1126382
0.1140731
0.1155258
0.1169321
0.1182506
0.1194602
0.1205535
0.1215273
0.1223696
0.123038
0.1234305
0.1232675
0.1229014
0.1222861
0.1215222
0.1206529
0.1196914
0.1186424
0.1175133
0.1163232
0.1151076
0.1139206
0.1128321
0.1119215
0.1112663
0.1109287
0.1109441
0.1113124
0.1119989
0.1129415
0.1140629
0.1152832
0.116532
0.1177547
0.118915
0.1199936
0.1209823
0.1218761
0.1226609
0.1232925
0.1236676
0.1235192
0.1231719
0.1225962
0.1218933
0.1211077
0.1202541
0.1193381
0.118367
0.1173575
0.1163393
0.1153564
0.1144646
0.1137259
0.1131991
0.1129308
0.1129471
0.1132479
0.1138076
0.1145797
0.1155051
0.1165218
0.1175735
0.1186157
0.1196182
0.1205638
0.1214447
0.1222547
0.1229785
0.1235704
0.1239268
0.1237829
0.1234554
0.1229213
0.1222813
0.12158
0.1208328
0.1200452
0.1192239
0.1183826
0.1175451
0.1167461
0.1160287
0.1154398
0.1150235
0.1148144
0.1148316
0.1150749
0.1155255
0.1161489
0.1169009
0.1177344
0.1186058
0.1194801
0.1203331
0.1211504
0.1219251
0.1226509
0.1233119
0.1238623
0.1241989
0.1240506
0.1237442
0.1232535
0.1226771
0.1220587
0.121413
0.120745
0.12006
0.1193685
0.1186893
0.1180488
0.1174794
0.1170163
0.1166921
0.1165319
0.1165498
0.1167457
0.1171057
0.1176045
0.1182093
0.1188851
0.1195989
0.1203238
0.1210409
0.121739
0.1224124
0.1230556
0.123653
0.12416
0.1244755
0.1243152
0.124032
0.1235873
0.1230756
0.1225376
0.1219866
0.1214265
0.1208611
0.1202984
0.1197525
0.1192433
0.1187953
0.1184341
0.1181838
0.1180628
0.1180814
0.1182395
0.1185267
0.1189247
0.1194093
0.1199545
0.1205358
0.1211326
0.1217306
0.1223212
0.1229003
0.1234632
0.1239961
0.124457
0.1247492
0.1245695
0.1243134
0.1239193
0.123474
0.1230137
0.1225495
0.1220842
0.1216205
0.1211644
0.1207267
0.1203226
0.1199702
0.1196887
0.1194959
0.1194054
0.1194246
0.1195535
0.1197844
0.1201037
0.1204937
0.1209348
0.1214086
0.1218996
0.1223965
0.1228929
0.1233855
0.1238708
0.1243372
0.1247474
0.1250125
0.1248051
0.1245824
0.1242459
0.1238698
0.123484
0.1230975
0.1227128
0.1223322
0.1219608
0.1216072
0.1212834
0.1210034
0.1207818
0.1206319
0.1205641
0.1205838
0.1206912
0.1208803
0.1211408
0.1214594
0.1218212
0.1222117
0.1226188
0.1230333
0.1234496
0.1238647
0.1242756
0.1246726
0.1250248
0.1252563
0.1250099
0.1248297
0.1245587
0.1242535
0.123937
0.1236172
0.1232973
0.1229806
0.1226724
0.1223803
0.1221143
0.1218858
0.1217065
0.1215869
0.1215351
0.1215554
0.1216477
0.1218075
0.1220268
0.1222948
0.1225997
0.1229297
0.1232744
0.1236257
0.1239777
0.1243264
0.124668
0.1249936
0.1252795
0.1254679
0.1251663
0.125037
0.1248348
0.1245953
0.1243364
0.1240673
0.1237938
0.1235208
0.1232544
0.1230023
0.1227735
0.1225779
0.1224255
0.1223251
0.1222834
0.1223041
0.1223872
0.1225287
0.1227219
0.1229579
0.1232264
0.1235172
0.1238208
0.124129
0.1244352
0.1247334
0.1250172
0.1252765
0.1254927
0.1256294
0.125253
0.1251688
0.1250174
0.1248205
0.1245951
0.1243532
0.124103
0.1238514
0.1236051
0.123372
0.1231607
0.1229806
0.1228409
0.1227495
0.1227126
0.1227336
0.1228124
0.1229454
0.1231265
0.1233475
0.123599
0.1238714
0.1241554
0.1244428
0.1247258
0.124997
0.1252472
0.1254636
0.125628
0.1257187
0.1358898
0.1358345
0.135726
0.1355723
0.135384
0.1351707
0.1349411
0.1347031
0.1344652
0.1342364
0.1340268
0.1338467
0.133706
0.1336134
0.1335752
0.1335951
0.1336728
0.1338048
0.1339845
0.134203
0.1344502
0.1347154
0.1349883
0.135259
0.1355186
0.1357583
0.1359687
0.1361394
0.1362594
0.1363202
0.1358325
0.1357622
0.135631
0.135453
0.1352412
0.1350056
0.1347544
0.1344955
0.134237
0.1339885
0.1337604
0.1335639
0.1334099
0.1333077
0.1332646
0.1332843
0.1333668
0.133508
0.1337008
0.1339355
0.134201
0.1344858
0.134779
0.1350706
0.1353516
0.1356136
0.1358477
0.1360429
0.1361858
0.1362619
0.1357199
0.1356269
0.1354584
0.1352378
0.1349826
0.1347041
0.1344105
0.1341094
0.1338091
0.1335201
0.133254
0.1330238
0.1328421
0.1327203
0.1326669
0.1326864
0.1327787
0.1329391
0.1331591
0.1334271
0.1337302
0.1340552
0.1343899
0.1347235
0.1350468
0.1353517
0.1356293
0.1358674
0.1360479
0.1361469
0.1355602
0.1354429
0.1352318
0.1349589
0.1346469
0.1343093
0.1339548
0.1335913
0.1332282
0.1328772
0.1325524
0.1322698
0.132045
0.1318924
0.1318228
0.1318419
0.1319498
0.1321404
0.1324029
0.1327229
0.1330842
0.1334707
0.133868
0.1342636