/*--------------------------------*- C++ -*----------------------------------*\
| =========                 |                                                 |
| \\      /  F ield         | OpenFOAM: The Open Source CFD Toolbox           |
|  \\    /   O peration     | Version:  2506                                  |
|   \\  /    A nd           | Website:  www.openfoam.com                      |
|    \\/     M anipulation  |                                                 |
\*---------------------------------------------------------------------------*/
FoamFile
{
    version     2.0;
    format      ascii;
    arch        "LSB;label=32;scalar=64";
    class       volScalarField;
    location    "4000/air";
    object      nut;
}
// * * * * * * * * * * * * * * * * * * * * * * * * * * * * * * * * * * * * * //

dimensions      [0 2 -1 0 0 0 0];

internalField   nonuniform List<scalar> 
33752
(
0.008251474
0.008215795
0.008183992
0.008159497
0.008139714
0.008123057
0.00810862
0.008095855
0.00808448
0.008074411
0.008065713
0.008058547
0.008053127
0.008049665
0.008048336
0.008049258
0.008052416
0.008057695
0.008064922
0.008073877
0.00808434
0.008096135
0.008109186
0.008123557
0.008139513
0.008157586
0.008178667
0.008204343
0.008237239
0.00827385
0.008215612
0.008160131
0.008116953
0.008086624
0.008063777
0.008045444
0.008029984
0.008016475
0.008004462
0.007993791
0.007984513
0.007976808
0.007970918
0.007967092
0.007965533
0.007966401
0.007969679
0.007975211
0.007982798
0.007992186
0.008003122
0.008015419
0.008029013
0.008044043
0.008060951
0.00808065
0.008104779
0.008136331
0.008180735
0.008237387
0.008183534
0.008116677
0.008063209
0.008025805
0.007998282
0.007976756
0.007958933
0.007943492
0.007929766
0.007917513
0.007906773
0.007897763
0.007890792
0.007886177
0.007884179
0.007884993
0.007888603
0.007894819
0.007903383
0.007913975
0.007926279
0.007940068
0.007955293
0.007972184
0.007991402
0.008014262
0.00804307
0.008081743
0.008136541
0.008204701
0.00815867
0.008085991
0.008025457
0.007981988
0.007949603
0.007924177
0.007903085
0.007884744
0.007868328
0.007853537
0.007840435
0.007829319
0.007820609
0.00781474
0.007812066
0.007812832
0.007817024
0.007824404
0.007834619
0.007847234
0.007861822
0.007878079
0.007895933
0.007915675
0.007938126
0.00796487
0.007998548
0.008043323
0.008105252
0.008179302
0.008138428
0.008062711
0.007997518
0.007949193
0.007912179
0.007882472
0.007857393
0.007835249
0.007815147
0.007796786
0.007780308
0.007766154
0.007754924
0.007747237
0.007743596
0.007744318
0.007749394
0.007758509
0.007771166
0.007786747
0.007804646
0.007824417
0.007845911
0.00786942
0.007895835
0.007926851
0.007965163
0.008014816
0.008081442
0.008158571
0.008121234
0.008043875
0.007975515
0.007923304
0.007882015
0.007847848
0.00781821
0.007791432
0.007766642
0.007743616
0.007722645
0.007704392
0.007689733
0.00767956
0.0076746
0.00767528
0.007681595
0.00769312
0.007709136
0.00772875
0.007751086
0.007775475
0.00780162
0.007829737
0.007860695
0.007896164
0.007938753
0.007992305
0.008062122
0.008140916
0.008106195
0.008027854
0.007957165
0.007901707
0.007856442
0.007817722
0.007783062
0.00775088
0.007720406
0.007691569
0.007664889
0.007641351
0.007622216
0.007608777
0.007602081
0.007602722
0.007610695
0.007625412
0.007645835
0.007670675
0.007698669
0.007728829
0.007760628
0.00779413
0.007830096
0.007870112
0.007916679
0.007973486
0.00804565
0.008125442
0.008092773
0.008013738
0.007941157
0.007882828
0.007833779
0.007790435
0.007750377
0.007712105
0.00767499
0.007639191
0.007605543
0.007575445
0.007550749
0.007533179
0.00752422
0.007524826
0.007534988
0.007553761
0.007579677
0.00761102
0.007645935
0.007683022
0.007721437
0.007761012
0.007802367
0.007847003
0.007897355
0.007957043
0.008031114
0.008111619
0.008080697
0.008001078
0.007926834
0.007865849
0.007813139
0.007765125
0.007719394
0.007674488
0.007629922
0.007586144
0.007544371
0.007506575
0.007475058
0.007452271
0.007440427
0.007441
0.007453978
0.0074779
0.007510568
0.007549548
0.007592546
0.007637582
0.007683426
0.007729621
0.007776642
0.007825947
0.007879965
0.007942319
0.008018073
0.008099182
0.008069886
0.00798973
0.007913958
0.007850478
0.007794229
0.007741575
0.007690051
0.007638197
0.00758566
0.007533126
0.007482619
0.007436667
0.007397593
0.007368859
0.007353669
0.007354205
0.007370456
0.007400264
0.007440427
0.007487505
0.007539201
0.007592968
0.007646766
0.007699899
0.007752709
0.007806656
0.007864221
0.007929087
0.008006393
0.008088071
0.008060395
0.007979742
0.007902574
0.00783678
0.007777193
0.007720077
0.007662872
0.007604073
0.00754343
0.007482176
0.007422932
0.007366938
0.007318251
0.007283332
0.007266766
0.007267236
0.007284736
0.007320736
0.007370479
0.007427557
0.007487941
0.007550414
0.007612307
0.007672378
0.007730869
0.007789284
0.0078502
0.007917403
0.007996145
0.008078376
0.008052353
0.007971295
0.007892901
0.007825055
0.007762474
0.007701297
0.00763884
0.007573513
0.007505208
0.00743582
0.007366538
0.007299546
0.00724837
0.007212157
0.007192933
0.007193362
0.007213437
0.007250539
0.00730287
0.007370937
0.007441319
0.007511905
0.007581459
0.007648056
0.007711801
0.007774286
0.007838215
0.007907504
0.007987535
0.008070298
0.008046124
0.007964666
0.007885256
0.007815726
0.007750671
0.007686105
0.007619213
0.007548364
0.007473281
0.007396359
0.007317486
0.007248043
0.00719223
0.007150808
0.007128582
0.007128982
0.007152
0.007194255
0.007250981
0.007321683
0.007401656
0.007479748
0.007556082
0.007628204
0.007696391
0.007762276
0.007828702
0.007899723
0.007980854
0.00806412
0.008041805
0.007960078
0.007879951
0.007809222
0.007742396
0.007675387
0.00760527
0.007530336
0.007450079
0.007367237
0.007282278
0.007211531
0.007150524
0.007104786
0.007080092
0.007080475
0.007105921
0.007152457
0.007214346
0.007286111
0.007372404
0.00745639
0.0075379
0.007614112
0.007685533
0.007753871
0.007822088
0.007894339
0.007976239
0.008059871
0.008039625
0.007957741
0.00787724
0.00780589
0.007738143
0.007669859
0.007598051
0.007520895
0.007437796
0.007351648
0.007265382
0.007192015
0.007128035
0.007079842
0.0070537
0.007054078
0.007080956
0.007129929
0.007194781
0.00726915
0.007356752
0.00744403
0.007528379
0.007606808
0.007679921
0.007749535
0.007818678
0.007891564
0.007973866
0.008057706
0.008039694
0.007957816
0.007877319
0.007805971
0.007738227
0.007669945
0.007598138
0.007520986
0.007437892
0.007351753
0.007265493
0.007192134
0.007128163
0.007079978
0.007053844
0.007054229
0.007081107
0.007130076
0.007194921
0.00726928
0.007356873
0.007444133
0.007528463
0.007606878
0.007679977
0.00774958
0.007818714
0.007891594
0.007973896
0.008057743
0.008042006
0.007960295
0.00788018
0.00780946
0.00774264
0.007675638
0.00760553
0.007530607
0.007450365
0.007367547
0.007282606
0.007211885
0.007150903
0.007105189
0.007080517
0.007080913
0.007106361
0.007152887
0.007214755
0.00728649
0.007372754
0.007456686
0.007538145
0.007614314
0.007685699
0.007754005
0.007822196
0.00789443
0.007976325
0.008059981
0.00804647
0.007965015
0.007885624
0.007816108
0.007751064
0.007686509
0.007619632
0.007548803
0.007473747
0.007396861
0.007318034
0.007248625
0.007192851
0.007151467
0.007129273
0.007129692
0.00715271
0.007194947
0.00725164
0.007322314
0.007402206
0.007480209
0.007556462
0.007628518
0.007696651
0.007762484
0.00782887
0.007899858
0.007980956
0.008064266
0.008052795
0.007971756
0.007893386
0.007825561
0.007762998
0.007701838
0.007639404
0.007574107
0.007505838
0.007436492
0.007367275
0.007300361
0.007249218
0.007213053
0.007193867
0.007194318
0.00721439
0.007251467
0.007303787
0.007371756
0.007442025
0.007512491
0.007581934
0.007648438
0.007712099
0.007774505
0.00783837
0.007907611
0.007987619
0.008070416
0.0080609
0.00798028
0.007903147
0.007837383
0.007777824
0.007720734
0.00766356
0.007604799
0.007544206
0.007483007
0.007423833
0.00736793
0.007319327
0.007284437
0.007267912
0.007268404
0.007285896
0.007321899
0.007371553
0.007428511
0.007488755
0.00755108
0.007612835
0.007672777
0.007731144
0.007789444
0.007850261
0.007917391
0.007996095
0.008078339
0.008070421
0.007990311
0.007914588
0.00785115
0.007794941
0.007742325
0.007690842
0.007639035
0.007586557
0.007534096
0.007483663
0.007437798
0.007398817
0.007370161
0.007355026
0.007355582
0.007371808
0.007401547
0.007441603
0.007488542
0.007540076
0.007593677
0.007647309
0.007700277
0.007752925
0.007806721
0.007864154
0.007928919
0.008006166
0.008087835
0.008081229
0.00800167
0.007927487
0.00786656
0.007813905
0.007765945
0.007720269
0.007675422
0.007630923
0.00758722
0.007545534
0.007507826
0.007476393
0.007453678
0.007441882
0.007442467
0.007455409
0.007479249
0.007511796
0.007550622
0.007593448
0.007638297
0.007683948
0.007729944
0.007776767
0.007825885
0.00787974
0.007941965
0.008017637
0.008098721
0.008093272
0.008014308
0.007941804
0.007883549
0.007834573
0.007791301
0.007751315
0.007713116
0.007676079
0.00764036
0.007606799
0.007576789
0.007552169
0.007534661
0.007525736
0.00752634
0.007536456
0.007555139
0.007580924
0.007612106
0.007646834
0.007683714
0.007721905
0.007761246
0.007802367
0.007846783
0.007896939
0.007956471
0.008030438
0.008110904
0.008106633
0.008028375
0.007957778
0.007902412
0.007857239
0.007818611
0.007784044
0.007751953
0.007721569
0.007692821
0.007666229
0.007642773
0.00762371
0.007610319
0.007603643
0.00760427
0.007612185
0.007626803
0.007647089
0.007671754
0.007699542
0.007729469
0.007761013
0.007794247
0.007829944
0.007869706
0.007916047
0.007972672
0.008044715
0.008124459
0.008121591
0.008044327
0.007976073
0.007923971
0.007882793
0.00784874
0.007819216
0.007792549
0.007767866
0.007744941
0.007724061
0.007705889
0.007691293
0.00768116
0.007676208
0.007676859
0.007683105
0.007694519
0.007710383
0.007729806
0.007751913
0.007776041
0.0078019
0.007829717
0.007860373
0.007895555
0.007937888
0.007991234
0.008060912
0.008139649
0.008138695
0.008063081
0.007998007
0.007949805
0.007912921
0.007883348
0.007858404
0.007836392
0.007816414
0.007798167
0.007781788
0.007767715
0.007756544
0.007748889
0.007745244
0.007745924
0.007750917
0.007759907
0.007772395
0.007787764
0.007805412
0.007824896
0.007846076
0.007869254
0.007895337
0.007926035
0.007964062
0.008013483
0.008079953
0.008157016
0.008158843
0.008086276
0.008025869
0.007982535
0.007950295
0.007925021
0.007904084
0.007885893
0.007869619
0.007854955
0.00784196
0.007830928
0.007822275
0.007816429
0.007813742
0.007814454
0.00781855
0.007825789
0.007835818
0.007848203
0.007862519
0.007878466
0.007895982
0.007915368
0.007937459
0.007963858
0.007997224
0.008041745
0.008103498
0.008177474
0.00818362
0.008116876
0.008063539
0.008026279
0.007998913
0.007977555
0.007959902
0.007944629
0.00793106
0.007918946
0.007908322
0.007899399
0.007892484
0.007887888
0.007885869
0.007886618
0.007890121
0.007896183
0.007904548
0.007914894
0.007926909
0.007940371
0.007955239
0.007971755
0.007990592
0.008013084
0.008041558
0.008079955
0.00813456
0.008202634
0.008215619
0.008160245
0.008117196
0.008087015
0.008064336
0.008046183
0.008030909
0.008017582
0.008005739
0.007995218
0.007986064
0.007978451
0.007972618
0.007968809
0.007967226
0.007968024
0.007971187
0.007976557
0.007983934
0.007993066
0.008003704
0.008015662
0.008028887
0.008043528
0.008060041
0.008079356
0.008103135
0.008134394
0.008178586
0.008235138
0.008251416
0.008215826
0.008184147
0.008159804
0.008140197
0.008123732
0.008109494
0.008096923
0.008085729
0.00807582
0.008067254
0.008060187
0.008054827
0.008051385
0.008050032
0.008050883
0.008053923
0.008059037
0.008066051
0.008074747
0.008084905
0.008096358
0.008109034
0.008123011
0.008138566
0.008156248
0.00817697
0.008202342
0.008235012
0.008271505
0.07732505
0.07745024
0.0774805
0.07744091
0.07736497
0.07727074
0.07716764
0.07706117
0.07695539
0.07685416
0.07676159
0.07668205
0.07661983
0.07657874
0.07656164
0.07656994
0.07660365
0.07666131
0.07673998
0.07683582
0.07694443
0.07706133
0.0771822
0.07730292
0.07741913
0.07752495
0.07761047
0.07765706
0.07763043
0.07750492
0.07744965
0.07762484
0.07767949
0.07764607
0.07756721
0.07746568
0.07735325
0.0772365
0.07712012
0.07700843
0.07690605
0.07681783
0.07674858
0.07670257
0.07668299
0.07669135
0.07672768
0.0767904
0.07687625
0.07698091
0.0770995
0.077227
0.07735862
0.07748977
0.07761545
0.07772867
0.0778172
0.07785764
0.07780655
0.07763078
0.07747829
0.07767787
0.07774716
0.07771521
0.07762849
0.07751321
0.07738337
0.07724701
0.07710985
0.07697722
0.0768548
0.07674861
0.07666461
0.07660809
0.07658302
0.07659133
0.07663303
0.07670614
0.07680665
0.0769292
0.07706776
0.07721615
0.07736851
0.07751924
0.07766229
0.07778924
0.07788561
0.0779246
0.07785888
0.07765865
0.07743615
0.07764187
0.07771264
0.0776745
0.07757432
0.07743924
0.07728453
0.07711953
0.07695131
0.07678675
0.07663332
0.076499
0.07639172
0.07631849
0.07628461
0.07629278
0.07634298
0.07643249
0.07655601
0.07670644
0.07687578
0.0770559
0.07723913
0.07741834
0.07758611
0.07773274
0.07784251
0.07788767
0.07782051
0.07761411
0.07735685
0.0775596
0.07762254
0.07757095
0.07745115
0.07728984
0.07710252
0.07689946
0.07668921
0.07648075
0.07628411
0.07611021
0.07596992
0.07587292
0.07582647
0.07583441
0.07589673
0.07600959
0.07616571
0.07635538
0.07656761
0.07679135
0.07701634
0.07723337
0.07743354
0.07760623
0.07773551
0.0777941
0.0777348
0.07753135
0.07725859
0.07745397
0.07750316
0.07743182
0.07728582
0.077091
0.07686254
0.07661115
0.07634688
0.07608117
0.0758275
0.07560085
0.07541628
0.07528725
0.07522386
0.07523152
0.07531023
0.07545459
0.0756545
0.07589649
0.07616537
0.07644603
0.07672476
0.07698985
0.07723094
0.07743696
0.07759233
0.07767063
0.07762507
0.07742897
0.0771509
0.07733686
0.07736866
0.0772725
0.07709395
0.07685802
0.07657928
0.07626863
0.07593743
0.07559991
0.07527379
0.07497942
0.07473756
0.0745669
0.07448145
0.07448878
0.07458887
0.07477424
0.0750309
0.07534013
0.07568108
0.07603321
0.07637858
0.07670268
0.07699384
0.07724082
0.07742864
0.0775317
0.07750351
0.0773168
0.0770394
0.07721499
0.07722718
0.07710245
0.07688591
0.07660173
0.07626378
0.07588289
0.07547158
0.07504692
0.07463162
0.07425277
0.07393847
0.0737149
0.07360149
0.07360841
0.07373569
0.07397327
0.0743018
0.07469502
0.07512477
0.07556372
0.07598894
0.07638307
0.07673328
0.07702838
0.07725409
0.07738568
0.07737707
0.07720069
0.07692824
0.07709314
0.07708457
0.07692885
0.0766704
0.0763323
0.07592751
0.07546657
0.07496277
0.07443583
0.07391366
0.07343124
0.07302711
0.07273661
0.07258668
0.07259314
0.07275607
0.0730598
0.07347754
0.0739739
0.07451014
0.07505111
0.07556861
0.07604264
0.07645957
0.0768085
0.07707605
0.07723858
0.07725072
0.077085
0.07682139
0.07697572
0.07694622
0.07675867
0.07645645
0.07606126
0.0755848
0.07503684
0.07443082
0.07378842
0.07314089
0.07253224
0.07201243
0.07162755
0.0714187
0.07142475
0.07164582
0.07204297
0.07257567
0.07319784
0.07385916
0.07451536
0.07513493
0.07569587
0.0761844
0.07659037
0.07690165
0.07709598
0.07712902
0.0769738
0.07672305
0.07686739
0.07681786
0.07659942
0.07625415
0.07580213
0.07525341
0.07461645
0.07390371
0.07313602
0.07234822
0.07159129
0.07090275
0.07033517
0.06996509
0.06997128
0.07035381
0.0709314
0.07163196
0.0724019
0.07320331
0.07398462
0.07471081
0.0753607
0.07592144
0.07638422
0.07673853
0.07696372
0.07701673
0.07687136
0.07663771
0.07677305
0.07670554
0.07645909
0.07607443
0.07556989
0.07495371
0.07423253
0.07341642
0.0725227
0.07158672
0.07061922
0.06952091
0.06870812
0.06827104
0.06827615
0.06872398
0.06954828
0.07065758
0.07163757
0.07258682
0.07349408
0.07432355
0.07505762
0.07568581
0.07620108
0.07659477
0.07684792
0.07691878
0.07678203
0.07656917
0.07669737
0.07661515
0.07634558
0.07592814
0.07537959
0.07470643
0.07391311
0.07300748
0.07199838
0.07089364
0.06951657
0.06824165
0.06729358
0.06679115
0.06679539
0.0673071
0.06826634
0.06955415
0.07094299
0.07206
0.07308246
0.07400134
0.07480749
0.07549263
0.0760519
0.07647832
0.07675451
0.07683986
0.07670992
0.07652157
0.07664467
0.07655198
0.07626587
0.07582489
0.07524461
0.07453015
0.07368431
0.07271214
0.07160881
0.07031999
0.06869993
0.06729029
0.06625174
0.06570272
0.06570628
0.06626342
0.06731242
0.06873567
0.07037319
0.07166926
0.07278516
0.07377043
0.07462903
0.07535539
0.07594633
0.07639623
0.07668888
0.07678457
0.07665942
0.07649755
0.07661806
0.07651993
0.07622518
0.07577188
0.07517496
0.07443883
0.07356547
0.07255725
0.07139542
0.0699454
0.06825935
0.06678515
0.0657004
0.0651273
0.06513049
0.06571108
0.06680585
0.06829365
0.06999746
0.07145474
0.07262902
0.07365023
0.07453628
0.07528423
0.07589173
0.07635387
0.07665509
0.07675612
0.07663339
0.07649848
0.07661898
0.07652086
0.07622614
0.07577287
0.07517598
0.0744399
0.0735666
0.07255844
0.07139666
0.06994659
0.06826063
0.06678652
0.06570185
0.0651288
0.065132
0.06571256
0.06680726
0.06829495
0.06999861
0.07145567
0.07262978
0.07365084
0.07453672
0.07528452
0.07589187
0.07635387
0.07665497
0.07675592
0.07663312
0.07652427
0.07664737
0.07655473
0.07626869
0.0758278
0.07524762
0.07453331
0.07368764
0.07271566
0.07161248
0.0703235
0.06870375
0.06729438
0.06625606
0.06570718
0.06571078
0.06626783
0.06731659
0.06873948
0.07037655
0.071672
0.07278741
0.0737722
0.0746303
0.07535617
0.07594664
0.07639612
0.07668843
0.07678387
0.07665852
0.07657333
0.07670163
0.07661951
0.07635008
0.07593281
0.07538445
0.07471151
0.07391848
0.07301319
0.07200442
0.0708999
0.06952287
0.06824833
0.06730062
0.06679843
0.06680271
0.06731424
0.06827305
0.06956022
0.07094819
0.07206439
0.07308606
0.07400412
0.07480941
0.07549369
0.07605214
0.07647785
0.07675348
0.07683848
0.0767082
0.07664308
0.07677851
0.07671118
0.07646497
0.07608059
0.07557636
0.07496053
0.07423975
0.07342413
0.07253091
0.07159537
0.07062819
0.06953005
0.06871767
0.06828087
0.068286
0.06873353
0.06955719
0.0706655
0.07164448
0.07259267
0.07349884
0.07432713
0.07505997
0.07568692
0.07620106
0.07659374
0.07684608
0.07691637
0.07677922
0.07672919
0.07687365
0.07682439
0.0766063
0.07626146
0.0758099
0.0752617
0.0746253
0.07391317
0.07314614
0.07235897
0.07160253
0.07091435
0.07034689
0.06997708
0.06998325
0.07036535
0.07094203
0.07164155
0.07241029
0.07321037
0.07399025
0.07471489
0.07536317
0.07592234
0.07638364
0.07673666
0.07696082
0.07701311
0.07686733
0.07682778
0.07698227
0.07695314
0.07676611
0.0764645
0.07606999
0.07559425
0.07504705
0.07444181
0.0738002
0.07315346
0.07254547
0.07202614
0.07164153
0.07143273
0.07143852
0.07165898
0.07205519
0.07258669
0.07320743
0.07386712
0.0745215
0.07513914
0.07569809
0.07618466
0.07658879
0.07689847
0.07709152
0.07712369
0.07696805
0.07693432
0.07709944
0.07709137
0.07693637
0.07667877
0.07634161
0.07593781
0.07547787
0.07497507
0.0744491
0.07392781
0.07344616
0.0730426
0.0727524
0.07260245
0.07260854
0.07277074
0.07307338
0.07348972
0.07398438
0.07451865
0.07505743
0.07557259
0.07604421
0.07645877
0.07680547
0.07707109
0.07723207
0.07724319
0.07707701
0.07704461
0.0772205
0.07723337
0.07710958
0.07689419
0.07661126
0.07627461
0.07589503
0.07548497
0.07506149
0.07464721
0.0742692
0.07395551
0.07373224
0.07361876
0.07362521
0.07375163
0.07398796
0.07431485
0.07470607
0.0751335
0.07556988
0.07599235
0.07638364
0.07673106
0.07702354
0.07724695
0.07737672
0.07736692
0.07719002
0.07715476
0.07734112
0.07737378
0.07727884
0.07710175
0.07686743
0.07659035
0.07628134
0.07595169
0.07561557
0.07529064
0.0749972
0.07475597
0.07458558
0.0745
0.07450676
0.07460584
0.07478975
0.07504451
0.07535145
0.07568974
0.07603893
0.07638114
0.07670199
0.07698993
0.07723388
0.07741904
0.07751999
0.07749041
0.0773031
0.07726073
0.0774566
0.07750687
0.07743704
0.07729285
0.07710002
0.0768736
0.0766242
0.07636179
0.07609772
0.07584541
0.07561979
0.07543587
0.07530708
0.07524348
0.07525045
0.07532797
0.07547066
0.07566843
0.07590783
0.07617374
0.07645109
0.07672627
0.0769877
0.07722517
0.07742777
0.07758012
0.07765602
0.07760887
0.07741209
0.07735706
0.07756041
0.07762463
0.07757485
0.07745722
0.07729827
0.07711338
0.07691266
0.07670456
0.07649797
0.07630286
0.07613008
0.07599047
0.07589368
0.07584694
0.07585406
0.07591503
0.07602602
0.07617976
0.07636657
0.07657552
0.07679562
0.07701671
0.07722971
0.07742587
0.07759478
0.0777207
0.07777661
0.07771553
0.07751133
0.07743441
0.07764083
0.07771309
0.07767705
0.07757936
0.077447
0.07729506
0.07713271
0.07696691
0.07680444
0.07665268
0.07651958
0.076413
0.07633995
0.0763057
0.07631292
0.07636163
0.07644909
0.07657002
0.07671736
0.07688316
0.07705936
0.07723838
0.07741323
0.07757666
0.07771918
0.0778253
0.07786753
0.07779842
0.07759119
0.07747481
0.07767518
0.07774614
0.07771653
0.07763259
0.07752032
0.07739353
0.07726009
0.07712557
0.07699519
0.07687457
0.07676966
0.07668639
0.07663002
0.07660451
0.07661179
0.07665187
0.07672279
0.07682055
0.07693983
0.07707464
0.07721889
0.07736679
0.07751291
0.07765137
0.07777396
0.07786644
0.07790229
0.07783446
0.07763332
0.07744487
0.07762093
0.0776774
0.07764649
0.07757061
0.07747229
0.0773631
0.07724945
0.07713586
0.07702655
0.07692605
0.07683916
0.07677066
0.07672479
0.07670473
0.076712
0.07674663
0.07680705
0.07689004
0.07699132
0.07710602
0.07722923
0.07735625
0.07748262
0.07760354
0.07771223
0.07779671
0.07783386
0.07778052
0.07760375
0.07731962
0.07744575
0.0774779
0.07744091
0.07736804
0.07727713
0.07717737
0.07707408
0.07697116
0.07687236
0.07678171
0.07670353
0.07664207
0.07660111
0.07658351
0.07659069
0.07662266
0.07667798
0.07675375
0.07684614
0.07695082
0.07706336
0.07717957
0.07729546
0.07740684
0.07750806
0.07758947
0.07763269
0.07760371
0.07747707
0.1657962
0.1658795
0.1658754
0.165774
0.1656018
0.1653823
0.1651319
0.164863
0.1645869
0.1643155
0.164062
0.1638405
0.1636648
0.163547
0.1634962
0.1635172
0.1636099
0.1637697
0.1639874
0.1642507
0.1645457
0.1648579
0.1651736
0.1654804
0.165766
0.1660171
0.1662161
0.1663382
0.1663557
0.1662779
0.1658769
0.166015
0.166048
0.1659575
0.1657771
0.1655373
0.1652593
0.1649584
0.1646479
0.1643417
0.1640548
0.1638035
0.1636033
0.1634682
0.1634084
0.1634294
0.1635311
0.1637083
0.1639505
0.1642437
0.1645722
0.1649194
0.1652698
0.1656088
0.1659222
0.1661937
0.1664009
0.1665118
0.1664915
0.1663579
0.1658677
0.1660429
0.1661023
0.1660122
0.1658088
0.1655284
0.1651972
0.1648346
0.1644575
0.1640832
0.1637308
0.1634203
0.1631715
0.1630017
0.1629237
0.1629445
0.163064
0.1632755
0.163566
0.1639181
0.164312
0.1647272
0.1651441
0.1655448
0.1659114
0.1662235
0.1664534
0.1665635
0.1665162
0.1663447
0.1657592
0.1659452
0.166005
0.1658941
0.1656475
0.165304
0.1648936
0.1644394
0.1639627
0.1634859
0.1630339
0.1626331
0.1623095
0.1620862
0.1619801
0.1620005
0.1621472
0.1624113
0.1627757
0.1632175
0.1637105
0.1642278
0.164744
0.1652359
0.1656815
0.1660563
0.1663291
0.1664596
0.1664113
0.1662286
0.1655782
0.1657559
0.1657926
0.1656385
0.1653266
0.1648962
0.1643791
0.1638018
0.1631903
0.1625735
0.1619845
0.1614586
0.1610313
0.1607333
0.160588
0.1606076
0.1607923
0.1611297
0.1615968
0.1621627
0.1627918
0.1634483
0.1640987
0.1647133
0.1652651
0.1657264
0.1660641
0.1662375
0.1662119
0.1660372
0.1653485
0.1655058
0.1655018
0.1652846
0.1648858
0.1643439
0.1636914
0.1629577
0.1621737
0.1613763
0.1606089
0.1599192
0.1593551
0.1589586
0.1587613
0.1587801
0.159015
0.1594492
0.1600516
0.1607801
0.1615865
0.1624228
0.163245
0.1640154
0.164702
0.1652744
0.1656986
0.1659347
0.1659496
0.1657952
0.1650868
0.1652164
0.1651591
0.1648628
0.1643573
0.1636801
0.1628637
0.1619394
0.1609437
0.1599224
0.1589319
0.1580357
0.1572982
0.1567765
0.156513
0.1565307
0.1568296
0.1573872
0.1581613
0.1590948
0.1601232
0.1611825
0.1622156
0.163176
0.164026
0.1647332
0.1652637
0.1655787
0.1656467
0.1655199
0.1648058
0.1649032
0.1647843
0.1643964
0.163768
0.1629345
0.1619276
0.1607804
0.1595344
0.1582457
0.1569859
0.155838
0.1548875
0.154211
0.1538656
0.1538821
0.1542605
0.1549707
0.1559559
0.1571396
0.1584361
0.1597618
0.1610445
0.1622272
0.1632672
0.1641304
0.1647836
0.1651899
0.1653194
0.1652248
0.164517
0.1645799
0.1643944
0.1639071
0.1631441
0.1621383
0.16092
0.1595227
0.1579929
0.1563969
0.1548234
0.1533782
0.1521728
0.1513084
0.1508623
0.1508775
0.151354
0.1522497
0.1534878
0.1549671
0.1565761
0.1582083
0.1597742
0.1612065
0.1624577
0.1634928
0.1642804
0.1647859
0.164982
0.1649218
0.1642325
0.1642605
0.1640069
0.1634173
0.1625147
0.1613287
0.1598868
0.1582224
0.1563856
0.1544523
0.1525277
0.1507417
0.1492339
0.1481378
0.1475628
0.1475766
0.1481795
0.1493043
0.1508426
0.1526612
0.1546202
0.1565889
0.1584613
0.1601604
0.1616349
0.1628501
0.1637771
0.1643849
0.1646489
0.1646236
0.1639655
0.1639601
0.163641
0.162952
0.1619129
0.160549
0.1588846
0.1569514
0.1548014
0.1525172
0.150218
0.1480512
0.1461743
0.1447705
0.1440138
0.1440266
0.144809
0.1462389
0.1481438
0.1503415
0.1526741
0.154993
0.1571783
0.159146
0.1608428
0.1622357
0.1632992
0.1640063
0.1643357
0.1643437
0.1637302
0.1636947
0.1633166
0.1625376
0.161374
0.159847
0.1579768
0.1557926
0.153346
0.1507216
0.1480418
0.1454395
0.1430611
0.1412229
0.1402608
0.1402721
0.1412579
0.1431223
0.1455256
0.1481566
0.1508686
0.1535272
0.1560087
0.1582272
0.1601297
0.1616857
0.1628736
0.1636705
0.1640588
0.1640965
0.1635398
0.1634798
0.1630533
0.1622
0.1609331
0.1592701
0.1572275
0.1548312
0.1521306
0.1492046
0.1461562
0.1430524
0.1402022
0.138111
0.1370106
0.1370204
0.1381415
0.1402571
0.1431354
0.1462647
0.1493436
0.1523031
0.1550383
0.1574687
0.1595435
0.1612354
0.1625265
0.1633975
0.1638339
0.1638959
0.1634066
0.1633291
0.1628681
0.1619618
0.160621
0.1588603
0.1566934
0.1541435
0.1512561
0.1480995
0.1447438
0.1412067
0.1381041
0.1358291
0.1346316
0.1346402
0.1358562
0.1381537
0.1412838
0.1448486
0.1482329
0.1514223
0.1543439
0.1569277
0.1591266
0.160916
0.1622808
0.1632047
0.1636753
0.1637544
0.1633391
0.1632526
0.1627736
0.1618397
0.1604603
0.1586487
0.1564167
0.1537861
0.1507993
0.147515
0.1439786
0.1402373
0.1369979
0.1346264
0.1333783
0.1333862
0.1346517
0.1370447
0.1403113
0.1440806
0.1476451
0.1509617
0.1539824
0.1566466
0.1589104
0.1607505
0.1621536
0.1631049
0.1635933
0.1636811
0.1633419
0.1632555
0.1627765
0.1618427
0.1604633
0.1586518
0.1564199
0.1537894
0.1508027
0.1475184
0.143982
0.1402407
0.1370014
0.13463
0.133382
0.1333899
0.1346553
0.1370483
0.1403147
0.1440838
0.1476478
0.1509641
0.1539844
0.1566482
0.1589115
0.1607512
0.1621539
0.1631049
0.163593
0.1636807
0.1634148
0.1633375
0.1628765
0.1619704
0.1606298
0.1588694
0.1567027
0.1541531
0.151266
0.1481095
0.144754
0.141217
0.1381147
0.1358399
0.1346427
0.1346513
0.1358672
0.1381644
0.1412939
0.1448579
0.1482411
0.1514294
0.1543497
0.1569322
0.1591299
0.1609179
0.1622816
0.1632045
0.1636744
0.163753
0.1635528
0.1634929
0.1630667
0.1622137
0.1609473
0.1592847
0.1572426
0.1548469
0.1521468
0.1492213
0.1461733
0.1430695
0.1402199
0.1381291
0.1370291
0.1370389
0.1381598
0.1402748
0.143152
0.1462798
0.149357
0.1523146
0.1550477
0.1574758
0.1595484
0.1612381
0.1625272
0.1633966
0.1638318
0.163893
0.1637468
0.1637115
0.1633339
0.1625555
0.1613926
0.1598664
0.1579971
0.1558138
0.1533681
0.1507446
0.1480656
0.1454638
0.1430859
0.1412484
0.1402867
0.140298
0.1412833
0.1431466
0.1455483
0.1481772
0.1508868
0.1535426
0.1560211
0.1582363
0.1601356
0.1616885
0.1628736
0.1636682
0.1640547
0.1640914
0.1639842
0.1639791
0.1636608
0.1629728
0.1619349
0.1605724
0.1589094
0.1569776
0.154829
0.1525462
0.1502482
0.1480824
0.1462064
0.1448033
0.1440469
0.1440595
0.1448411
0.1462695
0.1481723
0.1503673
0.1526966
0.1550118
0.157193
0.1591564
0.1608489
0.1622377
0.1632975
0.1640015
0.1643287
0.1643355
0.1642515
0.16428
0.1640276
0.1634395
0.1625388
0.1613548
0.1599151
0.1582528
0.1564181
0.1544868
0.152564
0.1507795
0.1492729
0.1481775
0.1476027
0.1476162
0.1482179
0.1493408
0.1508763
0.1526914
0.1546463
0.1566102
0.1584775
0.1601711
0.1616401
0.1628501
0.1637725
0.1643764
0.1646377
0.164611
0.1645344
0.1645981
0.1644141
0.163929
0.1631687
0.162166
0.1609507
0.1595564
0.1580296
0.1564363
0.1548652
0.153422
0.1522181
0.1513546
0.1509087
0.1509232
0.1513982
0.1522914
0.1535261
0.1550012
0.156605
0.1582313
0.1597909
0.1612165
0.162461
0.1634898
0.1642717
0.1647726
0.1649654
0.1649035
0.1648197
0.1649182
0.1648014
0.1644166
0.1637918
0.1629623
0.1619597
0.1608166
0.1595746
0.1582894
0.1570326
0.1558872
0.1549385
0.154263
0.1539177
0.1539333
0.1543099
0.155017
0.1559981
0.1571766
0.158467
0.1597858
0.1610608
0.1622356
0.1632677
0.1641233
0.1647698
0.1651706
0.1652962
0.1651996
0.1650954
0.1652264
0.165172
0.1648796
0.164379
0.1637071
0.1628961
0.1619772
0.1609865
0.1599696
0.1589829
0.1580897
0.1573543
0.1568337
0.1565703
0.1565869
0.1568834
0.1574374
0.1582066
0.159134
0.1601553
0.1612064
0.1622308
0.1631819
0.1640228
0.1647212
0.1652439
0.1655525
0.165616
0.1654869
0.1653505
0.1655096
0.1655092
0.165297
0.1649042
0.164369
0.1637233
0.1629962
0.1622183
0.1614264
0.1606635
0.1599773
0.1594156
0.1590204
0.158823
0.1588403
0.1590723
0.1595024
0.1600992
0.1608207
0.161619
0.1624461
0.1632583
0.1640183
0.1646945
0.1652569
0.1656723
0.1659011
0.1659108
0.1657538
0.1655728
0.1657527
0.1657938
0.1656457
0.1653411
0.1649187
0.1644098
0.1638403
0.1632361
0.1626257
0.1620419
0.1615201
0.1610954
0.1607987
0.1606531
0.160671
0.1608524
0.161185
0.1616459
0.162204
0.1628241
0.1634704
0.1641098
0.1647128
0.165253
0.1657033
0.1660311
0.1661964
0.1661651
0.1659875
0.1657464
0.165935
0.1659998
0.1658961
0.1656579
0.1653238
0.1649228
0.1644776
0.1640092
0.1635395
0.1630934
0.162697
0.1623764
0.1621544
0.162048
0.1620663
0.1622094
0.1624681
0.1628257
0.163259
0.1637422
0.1642484
0.1647527
0.1652321
0.1656651
0.1660278
0.1662899
0.1664115
0.166357
0.166171
0.1658482
0.1660263
0.1660915
0.1660095
0.1658156
0.1655455
0.1652248
0.1648722
0.1645041
0.1641377
0.1637917
0.163486
0.1632403
0.1630718
0.1629934
0.1630119
0.1631275
0.1633332
0.1636163
0.1639595
0.1643429
0.1647463
0.1651506
0.165538
0.1658912
0.1661905
0.1664089
0.1665095
0.1664554
0.1662805
0.1658523
0.1659937
0.166033
0.1659512
0.1657811
0.1655525
0.1652857
0.1649954
0.1646945
0.1643966
0.1641166
0.1638702
0.1636732
0.1635394
0.1634791
0.1634977
0.1635953
0.1637664
0.1640009
0.1642847
0.1646023
0.1649373
0.1652745
0.1655997
0.1658992
0.1661574
0.1663525
0.1664535