/*--------------------------------*- C++ -*----------------------------------*\
| =========                 |                                                 |
| \\      /  F ield         | OpenFOAM: The Open Source CFD Toolbox           |
|  \\    /   O peration     | Version:  2506                                  |
|   \\  /    A nd           | Website:  www.openfoam.com                      |
|    \\/     M anipulation  |                                                 |
\*---------------------------------------------------------------------------*/
FoamFile
{
    version     2.0;
    format      ascii;
    arch        "LSB;label=32;scalar=64";
    class       surfaceScalarField;
    location    "4000/air";
    object      phi;
}
// * * * * * * * * * * * * * * * * * * * * * * * * * * * * * * * * * * * * * //

dimensions      [1 0 -1 0 0 0 0];

oriented        oriented;

internalField   nonuniform List<scalar> 
98844
(
-0.007456226
-0.007502731
-0.005992211
-0.005650146
-0.009021681
-0.005477366
-0.004482923
-0.0102087
-0.005045802
-0.003660512
-0.0110458
-0.004761659
-0.003031911
-0.01161954
-0.004568145
-0.002522872
-0.01200685
-0.004431785
-0.002093851
-0.01226253
-0.004333841
-0.001722434
-0.01242447
-0.004262271
-0.00139519
-0.01251974
-0.00420928
-0.001103432
-0.01256893
-0.004169813
-0.0008407934
-0.01258801
-0.00414057
-0.0006018188
-0.0125896
-0.00411942
-0.0003811545
-0.01258387
-0.004105167
-0.0001733402
-0.01257839
-0.004097093
2.719337e-05
-0.01257818
-0.00409476
0.0002283587
-0.01258685
-0.004098077
0.0004377396
-0.0126041
-0.004107011
0.0006607471
-0.01262628
-0.004121718
0.0009030967
-0.01264837
-0.004142698
0.001170322
-0.01266261
-0.00417066
0.001468063
-0.01265864
-0.004206798
0.00180287
-0.01262361
-0.004253222
0.002183634
-0.01254127
-0.004313228
0.002624001
-0.01239068
-0.004391855
0.003146684
-0.01214431
-0.004496924
0.003791686
-0.01176365
-0.004640545
0.004634157
-0.01119294
-0.004841674
0.005827173
-0.01035379
-0.005134297
0.007669721
-0.009157573
-0.005576456
-0.007620648
-0.006102515
-0.008975013
-0.005695196
-0.00547629
-0.006613945
-0.006657593
-0.004725153
-0.005084739
-0.007539417
-0.004198487
-0.004025178
-0.008224759
-0.003880603
-0.003242155
-0.008725579
-0.003676976
-0.002631403
-0.009076794
-0.003540802
-0.002134896
-0.009312288
-0.003446746
-0.001719499
-0.009460061
-0.003379802
-0.001365481
-0.009542814
-0.003330936
-0.001060273
-0.009579441
-0.003294694
-0.0007948629
-0.009585748
-0.003267666
-0.0005616748
-0.009574978
-0.003247807
-0.0003533013
-0.009558237
-0.003234003
-0.000161917
-0.009544104
-0.003225671
2.091176e-05
-0.009538467
-0.003222542
0.0002042183
-0.009544894
-0.003225262
0.0003970358
-0.009563204
-0.003233707
0.0006078544
-0.009589786
-0.003247304
0.0008446548
-0.009618702
-0.003266461
0.00111504
-0.009641225
-0.003291769
0.001426815
-0.00964608
-0.003324334
0.00178923
-0.009619816
-0.003366209
0.002215136
-0.00954638
-0.003420792
0.002724591
-0.009406568
-0.003493567
0.003351197
-0.009177304
-0.003593608
0.004153732
-0.00883009
-0.003736088
0.005237851
-0.008330392
-0.003946661
0.006799479
-0.00764246
-0.004272954
0.009206876
-0.006753529
-0.004811438
-0.005779754
-0.005577615
-0.01016027
-0.004525589
-0.005043277
-0.007495818
-0.005124931
-0.004197114
-0.005700166
-0.005739025
-0.003596041
-0.004432835
-0.006255285
-0.003236802
-0.003495247
-0.006651618
-0.003011545
-0.002771721
-0.006935704
-0.002864612
-0.002194218
-0.007124413
-0.002765373
-0.001722467
-0.007236072
-0.002695736
-0.001331928
-0.007288239
-0.00264511
-0.001006708
-0.007297419
-0.002607238
-0.0007352377
-0.007278754
-0.00257846
-0.0005075979
-0.007245888
-0.002556726
-0.0003138987
-0.007210833
-0.002541099
-0.0001435289
-0.007183259
-0.002531211
1.496702e-05
-0.007169962
-0.002526997
0.0001739731
-0.007174708
-0.002529189
0.0003458594
-0.007197399
-0.002537687
0.0005421554
-0.007234256
-0.002551822
0.0007736698
-0.007278416
-0.002571796
0.001050533
-0.007320099
-0.002597984
0.001382939
-0.007347148
-0.002631334
0.001782759
-0.007345737
-0.002673895
0.002266231
-0.0073005
-0.002729348
0.002858314
-0.00719467
-0.002803976
0.003599862
-0.007010379
-0.002908469
0.004559835
-0.006728941
-0.003061117
0.005855519
-0.006333074
-0.003293
0.007688488
-0.005814687
-0.003660738
0.01040514
-0.005195697
-0.004274475
-0.004589364
-0.005137058
-0.01099441
-0.003700274
-0.004757259
-0.008180034
-0.004061652
-0.00387765
-0.006216627
-0.004467016
-0.003235411
-0.004795299
-0.004828285
-0.002848326
-0.003728538
-0.005113507
-0.002604867
-0.002901762
-0.005316395
-0.002446081
-0.002244761
-0.005442688
-0.002338723
-0.001714686
-0.005503247
-0.002262896
-0.001284844
-0.005511211
-0.002206866
-0.0009375567
-0.005480859
-0.002163844
-0.0006595438
-0.00542675
-0.002130013
-0.0004388904
-0.005363035
-0.002103502
-0.0002631646
-0.005302859
-0.002083696
-0.0001185843
-0.005257189
-0.002070646
1.002421e-05
-0.00523394
-0.002064626
0.0001391691
-0.005237372
-0.002066476
0.0002853395
-0.005267446
-0.002076119
0.0004637932
-0.005319925
-0.002092781
0.0006885502
-0.00538686
-0.002116308
0.0009723299
-0.005457203
-0.002146672
0.00132737
-0.00551769
-0.002184495
0.001767303
-0.005554003
-0.002231662
0.0023102
-0.005551386
-0.002292007
0.00298323
-0.005495323
-0.002372373
0.003829878
-0.005372427
-0.002484596
0.004921342
-0.005171571
-0.002648831
0.006373832
-0.004886761
-0.002898799
0.008377779
-0.004524103
-0.003294526
0.01124762
-0.004115629
-0.003949909
-0.003750052
-0.004846473
-0.01156422
-0.003068629
-0.00456145
-0.008678785
-0.003274924
-0.003672155
-0.006612239
-0.003524972
-0.003008586
-0.005080811
-0.0037563
-0.002603409
-0.003911236
-0.003937933
-0.002345145
-0.002995368
-0.004057997
-0.002174263
-0.002265446
-0.004115975
-0.00205663
-0.001679504
-0.004117811
-0.001971374
-0.001211124
-0.004073439
-0.001906148
-0.0008425346
-0.00399556
-0.001853884
-0.0005598413
-0.003898531
-0.001810907
-0.0003497269
-0.003797362
-0.001775784
-0.0001973005
-0.003706713
-0.001748568
-8.526304e-05
-0.003639198
-0.001730025
5.995357e-06
-0.00360416
-0.001721034
9.779426e-05
-0.003606529
-0.001722638
0.000211448
-0.003646309
-0.001734787
0.0003666769
-0.003718644
-0.001756505
0.0005810555
-0.003814208
-0.001787027
0.0008698089
-0.003920337
-0.001825615
0.001246623
-0.004022268
-0.001872232
0.001725787
-0.004104843
-0.00192832
0.002325498
-0.004153511
-0.001997582
0.003072671
-0.004155361
-0.00208713
0.00400993
-0.004100237
-0.002209446
0.005206015
-0.003981993
-0.002385659
0.006770655
-0.003800971
-0.002650427
0.008879885
-0.003568974
-0.003064356
0.01182274
-0.003317116
-0.003741364
-0.003108343
-0.004647819
-0.0119468
-0.002556673
-0.004422433
-0.009027174
-0.002660702
-0.003533842
-0.00689488
-0.002797372
-0.002859889
-0.005283287
-0.002924847
-0.002443042
-0.004031675
-0.003016788
-0.002172753
-0.003039618
-0.003060059
-0.001989991
-0.002244021
-0.003051124
-0.001860445
-0.00160597
-0.002992999
-0.001762859
-0.00110123
-0.002893592
-0.001684583
-0.0007134749
-0.002764695
-0.001618615
-0.0004293393
-0.002620943
-0.00156172
-0.0002348246
-0.002478529
-0.001513344
-0.0001126675
-0.002354211
-0.001474655
-4.178535e-05
-0.002262447
-0.001447629
2.685465e-06
-0.002214513
-0.001434113
4.76822e-05
-0.002215997
-0.001435524
0.0001201692
-0.002266964
-0.001451828
0.0002451276
-0.002361899
-0.001481699
0.0004439846
-0.00248967
-0.001523391
0.0007343787
-0.002635752
-0.001574975
0.001130723
-0.002783315
-0.001635293
0.001646813
-0.002916017
-0.001704912
0.002299421
-0.003019036
-0.001787078
0.003113287
-0.003080369
-0.001888854
0.004127967
-0.003091905
-0.002023008
0.005407508
-0.003050447
-0.002211083
0.007053845
-0.0029594
-0.002487904
0.009230341
-0.002831855
-0.002913611
0.01220869
-0.002694279
-0.00360118
-0.002588822
-0.004507041
-0.01219705
-0.002125039
-0.004321531
-0.009259211
-0.002161115
-0.003437424
-0.007081564
-0.002216295
-0.002758721
-0.005408625
-0.002263791
-0.002333991
-0.004089513
-0.002282343
-0.002053553
-0.003031164
-0.002259476
-0.001858928
-0.00217593
-0.002190434
-0.00171592
-0.001489233
-0.002076631
-0.001603061
-0.0009504108
-0.001924762
-0.001507648
-0.0005459252
-0.00174623
-0.001422947
-0.0002640283
-0.001556285
-0.00134655
-9.096071e-05
-0.001372333
-0.001279259
-7.235093e-06
-0.001213928
-0.001224005
1.295285e-05
-0.001097801
-0.00118483
-8.698163e-08
-0.001036625
-0.001164844
-1.263799e-05
-0.001037369
-0.001166073
9.033873e-06
-0.001100116
-0.001188515
9.555085e-05
-0.001218146
-0.001230266
0.0002729682
-0.001378801
-0.001288282
0.0005612296
-0.001565414
-0.001358595
0.0009745677
-0.00175836
-0.001438289
0.001525189
-0.001940074
-0.001526559
0.002227095
-0.002095115
-0.001625823
0.003101444
-0.002211861
-0.001742853
0.004183436
-0.002283411
-0.001890483
0.005531623
-0.002308179
-0.00209045
0.007240515
-0.002290795
-0.002377493
0.009463533
-0.002243691
-0.002811178
0.01246112
-0.002188204
-0.003503655
-0.002151314
-0.004405111
-0.01235293
-0.00175143
-0.004246759
-0.00940299
-0.001743118
-0.003367937
-0.007190725
-0.001741532
-0.002687024
-0.00546781
-0.001730317
-0.002256385
-0.004090831
-0.001692636
-0.001966682
-0.002973176
-0.001617307
-0.001759819
-0.002062757
-0.001499271
-0.001601579
-0.001330007
-0.001339056
-0.00147032
-0.0007588758
-0.001142604
-0.001353285
-0.0003398512
-0.000921059
-0.001244191
-6.379395e-05
-0.0006906621
-0.001141676
8.243969e-05
-0.0004696439
-0.001048918
0.0001202455
-0.000280102
-0.0009716271
7.94476e-05
-0.0001413637
-0.0009156351
-2.498686e-06
-6.840008e-05
-0.0008862746
-8.398084e-05
-6.853666e-05
-0.0008873454
-0.0001233381
-0.0001419073
-0.0009188469
-8.29031e-05
-0.0002814654
-0.0009771112
6.759166e-05
-0.0004723427
-0.001056949
0.0003500469
-0.0006952666
-0.001152598
0.0007781066
-0.0009280737
-0.001258341
0.001361395
-0.001152363
-0.001370995
0.002109897
-0.001351705
-0.001491909
0.003040151
-0.001514717
-0.001627394
0.004182312
-0.001635246
-0.001790322
0.005589335
-0.001712584
-0.002002614
0.007349217
-0.001751661
-0.002299012
0.009607848
-0.001763589
-0.002738729
0.01261844
-0.001765222
-0.003433566
-0.001773013
-0.004329861
-0.01244157
-0.001422496
-0.004190347
-0.009481272
-0.001387029
-0.003316382
-0.007239998
-0.001348563
-0.002634239
-0.005474068
-0.001297725
-0.002198517
-0.004045668
-0.001221214
-0.001899819
-0.002873682
-0.001109257
-0.001680032
-0.001911336
-0.0009568841
-0.00150473
-0.001134394
-0.0007641076
-0.001351886
-0.0005321273
-0.0005362501
-0.001208616
-0.0001006694
-0.0002835806
-0.001068932
0.0001669295
-2.510527e-05
-0.0009331515
0.0002824106
0.0002224522
-0.0008075729
0.0002679637
0.0004342816
-0.0006999324
0.0001573713
0.0005898416
-0.0006206086
-4.766148e-06
0.0006721981
-0.0005784566
-0.000166473
0.0006725199
-0.0005793454
-0.0002757208
0.0005906429
-0.000623298
-0.0002876238
0.0004350603
-0.0007046182
-0.0001679401
0.0002225725
-0.0008145946
0.0001060297
-2.629002e-05
-0.0009429421
0.0005466731
-0.0002867835
-0.001081929
0.00116139
-0.0005418589
-0.001225217
0.001954551
-0.0007724114
-0.00137245
0.002937359
-0.0009678928
-0.001529627
0.00413461
-0.001122755
-0.001709737
0.005593906
-0.001236804
-0.001935072
0.007397713
-0.001314864
-0.0022406
0.009686278
-0.001366604
-0.002685546
0.01270813
-0.00140526
-0.00338181
-0.001440218
-0.00427344
-0.01248355
-0.001129619
-0.004147199
-0.009512986
-0.001080284
-0.003277309
-0.007245939
-0.001021473
-0.002594133
-0.005441742
-0.0009482926
-0.002153625
-0.003966797
-0.0008502388
-0.001845917
-0.002744564
-0.0007189021
-0.001612583
-0.001733179
-0.0005496078
-0.001418657
-0.0009136724
-0.0003421154
-0.001241495
-0.0002805984
-0.0001016468
-0.001067673
0.0001636871
0.0001640972
-0.0008919588
0.0004199957
0.0004345928
-0.0007160024
0.0005000289
0.0006921456
-0.0005497224
0.0004271045
0.0009125767
-0.0004053663
0.0002406416
0.001074609
-0.0002983005
-6.875441e-06
0.001160922
-0.0002412021
-0.0002540093
0.001161539
-0.0002418806
-0.0004392514
0.001076282
-0.0003003929
-0.0005097922
0.0009147776
-0.0004091721
-0.0004256968
0.0006941445
-0.0005556631
-0.0001629811
0.0004356098
-0.0007246111
0.0002906279
0.0001634058
-0.0009037941
0.0009363955
-0.0001044161
-0.001083206
0.00177254
-0.0003474353
-0.001261117
0.002804949
-0.0005575323
-0.001442765
0.004053129
-0.0007292766
-0.001641654
0.00555975
-0.0008627227
-0.001880698
0.007402683
-0.0009623904
-0.002195402
0.009717962
-0.001036538
-0.002645342
0.0127511
-0.001095481
-0.003342913
-0.001143989
-0.004230834
-0.01249473
-0.0008664488
-0.004113793
-0.009513941
-0.0008137831
-0.003247284
-0.007223718
-0.0007486362
-0.002563056
-0.005385426
-0.0006686742
-0.002117907
-0.003868618
-0.0005657262
-0.001801317
-0.002600504
-0.000432761
-0.00155425
-0.001543597
-0.000265547
-0.001340964
-0.0006841624
-6.374903e-05
-0.001137796
-2.344576e-05
0.0001684296
-0.0009307887
0.0004327135
0.0004229103
-0.000714968
0.0006789875
0.0006835101
-0.0004951871
0.0007234444
0.000930621
-0.000282928
0.0005917376
0.001143108
-9.882008e-05
0.0003279009
0.00129805
4.040073e-05
-8.869306e-06
0.001379212
0.0001184845
-0.0003453233
0.00137996
0.0001180373
-0.0006080606
0.001300092
3.893201e-05
-0.0007375564
0.001145877
-0.0001015997
-0.0006891168
0.0009334373
-0.000287728
-0.0004365079
0.0006856169
-0.0005026117
2.888979e-05
0.0004236518
-0.0007256393
0.0007027367
0.0001670566
-0.0009453153
0.00157922
-6.735621e-05
-0.001156558
0.00265766
-0.0002715752
-0.001364392
0.003952341
-0.0004411205
-0.001582833
0.005501544
-0.0005761213
-0.0018358
0.007379416
-0.0006806516
-0.002159607
0.009718915
-0.0007615526
-0.002614479
0.01276364
-0.0008266452
-0.003313556
-0.0008776596
-0.004198894
-0.01248772
-0.000626496
-0.004087076
-0.009497421
-0.0005798601
-0.003224216
-0.007187007
-0.0005200715
-0.002538975
-0.005319287
-0.0004468816
-0.002089508
-0.003766147
-0.0003542678
-0.001764594
-0.002457704
-0.000236718
-0.001504482
-0.001359993
-9.080178e-05
-0.001272452
-0.0004640628
8.429487e-05
-0.00104397
0.0002228342
0.0002858283
-0.0008042914
0.0006886612
0.0005049661
-0.0005478786
0.0009243403
0.0007300179
-0.0002821826
0.0009363755
0.0009446876
-2.609743e-05
0.0007465649
0.001125748
0.0002071746
0.0004086652
0.001259315
0.000376639
-1.060674e-05
0.001330334
0.0004681541
-0.0004296171
0.001331025
0.0004679489
-0.0007666134
0.001261201
0.0003758912
-0.0009544613
0.001128323
0.0002054066
-0.000938587
0.0009473444
-2.977717e-05
-0.00069657
0.0007320685
-0.0002884643
-0.0002212087
0.0005057803
-0.0005574854
0.000478855
0.0002848733
-0.000817876
0.001392135
8.135215e-05
-0.001061984
0.002511803
-9.588176e-05
-0.001295356
0.003847364
-0.0002439162
-0.001532761
0.005433551
-0.0003633012
-0.001799003
0.007341672
-0.0004573536
-0.002131415
0.00970257
-0.0005313894
-0.002591056
0.01275884
-0.0005909726
-0.003291936
-0.0006354262
-0.004175944
-0.01247348
-0.0004057835
-0.004069083
-0.009474715
-0.0003711379
-0.003207479
-0.007147866
-0.000325855
-0.002521062
-0.005256473
-0.0002704322
-0.002067838
-0.00367403
-0.0002009043
-0.001735802
-0.002332894
-0.0001134132
-0.001464437
-0.001201885
-5.781751e-06
-0.001216025
-0.0002754714
0.0001235845
-0.0009656988
0.0004332269
0.0002729962
-0.0006958618
0.0009073641
0.0004337482
-0.0004029149
0.001134981
0.0006000449
-9.763931e-05
0.001115666
0.0007564688
0.0002075376
0.0008793556
0.0008908559
0.0004712075
0.0004784253
0.0009895131
0.0006707364
-1.217212e-05
0.001041997
0.0007789387
-0.0005025401
0.001042459
0.0007789393
-0.0009026628
0.0009907535
0.000670575
-0.001137124
0.0008924876
0.0004703011
-0.001152788
0.0007579817
0.0002050307
-0.0009188916
0.0006009724
-0.0001027961
-0.000435168
0.0004336636
-0.0004116026
0.0002868909
0.0002715144
-0.0007086957
0.001230948
0.0001204797
-0.0009831803
0.002384239
-1.050368e-05
-0.001238665
0.003752981
-0.0001199394
-0.001492714
0.005369018
-0.0002088576
-0.001770477
0.007301538
-0.0002794748
-0.002110394
0.009680079
-0.0003354077
-0.002574518
0.01274727
-0.0003802254
-0.003277937
-0.0004127901
-0.004162272
-0.01245916
-0.0001978821
-0.004056525
-0.009454377
-0.000179827
-0.003196087
-0.007115962
-0.0001553814
-0.002508885
-0.00520793
-0.0001255272
-0.002052933
-0.003604826
-8.831575e-05
-0.001715688
-0.002240418
-4.1759e-05
-0.001436058
-0.001085929
1.544293e-05
-0.001175709
-0.0001375766
8.398971e-05
-0.0009087533
0.0005874217
0.0001638042
-0.000615802
0.00106771
0.0002487956
-0.0002953312
0.001288065
0.0003376699
4.202387e-05
0.001247483
0.0004199658
0.0003770895
0.0009764567
0.000491136
0.0006707506
0.000529543
0.0005435237
0.0008929075
-1.348753e-05
0.000571334
0.001013698
-0.0005562935
0.0005714183
0.00101385
-0.001002424
0.0005437063
0.0008931817
-0.00127166
0.0004912171
0.0006705108
-0.001308746
0.0004196959
0.0003753765
-0.001082072
0.000336879
3.742303e-05
-0.0005921602
0.0002471281
-0.0003033718
0.0001463273
0.0001611676
-0.0006281364
0.001112476
8.030243e-05
-0.0009259668
0.002289649
1.064872e-05
-0.001198322
0.003681983
-4.759996e-05
-0.001464669
0.005319127
-9.500453e-05
-0.001750993
0.007268953
-0.0001327785
-0.002096518
0.009660152
-0.0001627641
-0.002563839
0.01273537
-0.0001866742
-0.003268765
-0.0002032502
-0.004153582
-0.01244991
2.174762e-06
-0.00405025
-0.009442286
2.50917e-06
-0.003189953
-0.007098088
2.759844e-06
-0.002502336
-0.005181555
2.933026e-06
-0.002044989
-0.003567844
3.032899e-06
-0.001705055
-0.00219154
3.062119e-06
-0.001421121
-0.00102463
3.037309e-06
-0.0011545
-6.522171e-05
2.94591e-06
-0.0008783597
0.0006686436
2.788354e-06
-0.0005728452
0.001152528
2.575866e-06
-0.0002376603
0.001367646
2.310303e-06
0.0001202462
0.001316925
1.989107e-06
0.0004687017
0.001027584
1.628962e-06
0.0007788523
0.000556361
1.24624e-06
0.001013505
-1.441353e-05
8.59992e-07
0.001141253
-0.0005849525
4.820418e-07
0.00114148
-0.00105537
1.396329e-07
0.001013989
-0.001342906
-1.758242e-07
0.0007789331
-0.001390069
-4.678487e-07
0.0004673312
-0.001168697
-7.442483e-07
0.000116255
-0.0006751619
-1.011281e-06
-0.0002453913
7.2247e-05
-1.279596e-06
-0.0005849574
0.001049638
-1.569624e-06
-0.0008955147
0.002239366
-1.854061e-06
-0.001177221
0.003643881
-2.1013e-06
-0.001450009
0.005291959
-2.283383e-06
-0.001740795
0.007250755
-2.360254e-06
-0.00208921
0.009648454
-2.28154e-06
-0.002558178
0.0127277
-1.989226e-06
-0.003263929
-1.460648e-06
-0.004149473
-0.01244953
0.0002022615
-0.004049998
-0.009442084
0.0001848533
-0.003189785
-0.007098003
0.000160894
-0.002502211
-0.005181561
0.0001313806
-0.002044885
-0.003567928
9.436422e-05
-0.001704961
-0.002191682
4.785562e-05
-0.001421034
-0.001024823
-9.427011e-06
-0.001154391
-6.546787e-05
-7.814393e-05
-0.0008782606
0.0006683447
-0.0001582666
-0.0005727532
0.001152185
-0.000243682
-0.0002375785
0.001367261
-0.0003330724
0.0001203116
0.00131652
-0.00041601
0.000468744
0.001027178
-0.000487891
0.0007788671
0.0005559674
-0.0005410311
0.001013492
-1.478169e-05
-0.0005695994
0.001141213
-0.0005852876
-0.0005704264
0.001141419
-0.001055672
-0.0005433917
0.00101392
-0.001343183
-0.0004915284
0.0007788677
-0.001390334
-0.0004205882
0.000467276
-0.001168966
-0.0003383199
0.0001162112
-0.0006754457
-0.0002490993
-0.0002454273
7.194958e-05
-0.0001636727
-0.0005849979
0.001049331
-8.336611e-05
-0.0008955809
0.002239075
-1.426034e-05
-0.001177333
0.003643639
4.349158e-05
-0.001450152
0.005291799
9.053745e-05
-0.001740977
0.007250721
0.0001281567
-0.002089435
0.0096486
0.0001582979
-0.002558454
0.01272811
0.0001827958
-0.003264287
0.0002004247
-0.004150019
-0.01245807
0.0004103145
-0.004055758
-0.009453787
0.0003761439
-0.003195566
-0.007115714
0.0003313255
-0.002508501
-0.005207951
0.0002762323
-0.00205261
-0.003605076
0.0002068872
-0.001715394
-0.00224089
0.0001194518
-0.001435778
-0.001086489
1.15822e-05
-0.001175405
-0.000138326
-0.000117842
-0.0009084608
0.0005865239
-0.0002675782
-0.0006155339
0.001066691
-0.0004287548
-0.0002950901
0.001286916
-0.0005955668
4.227411e-05
0.001246285
-0.0007525897
0.0003772147
0.0009752596
-0.0008876534
0.0006707921
0.0005283911
-0.000987024
0.0008928657
-1.455908e-05
-0.001040224
0.001013579
-0.0005572661
-0.001041392
0.001013677
-0.001003301
-0.0009903455
0.0008929933
-0.001272469
-0.0008926928
0.0006703363
-0.001309526
-0.0007587593
0.0003752321
-0.001082863
-0.0006022872
3.730964e-05
-0.0005929989
-0.0004354928
-0.0003034666
0.0001454394
-0.0002738552
-0.0006282515
0.001111579
-0.0001233253
-0.000926176
0.002288771
7.237243e-06
-0.001198685
0.00368127
0.0001161788
-0.001465182
0.005318652
0.0002048018
-0.001751642
0.007268856
0.0002752819
-0.002097325
0.009660604
0.0003313589
-0.002564805
0.01273659
0.0003767447
-0.003269932
0.0004101528
-0.004155324
-0.01247184
0.0006307978
-0.004068435
-0.009473786
0.0005847387
-0.003206646
-0.007147472
0.0005254362
-0.002520421
-0.005256514
0.0004525701
-0.002067292
-0.003674434
0.0003601137
-0.001735303
-0.002333582
0.0002425673
-0.001463963
-0.001202906
9.649739e-05
-0.001215586
-0.0002767225
-7.879461e-05
-0.0009652267
0.0004317623
-0.0002806375
-0.0006954211
0.000905705
-0.000500205
-0.0004024882
0.001133136
-0.0007257385
-9.725475e-05
0.001113726
-0.0009409744
0.0002077986
0.000877422
-0.001122651
0.0004713059
0.000476567
-0.001256865
0.0006706999
-1.39015e-05
-0.001328538
0.0007787868
-0.0005041147
-0.001329886
0.0007787108
-0.0009040922
-0.001260693
0.0006703295
-0.001138448
-0.001128411
0.0004700779
-0.001154062
-0.0009479909
0.0002048501
-0.0009201766
-0.0007332323
-0.000102936
-0.0004365154
-0.0005074203
-0.0004117296
0.0002854704
-0.0002869667
-0.0007088701
0.001229492
-8.381505e-05
-0.0009835275
0.002382899
9.311701e-05
-0.001239283
0.003751863
0.0002408992
-0.001493679
0.005368253
0.0003601339
-0.001771718
0.007301382
0.0004541366
-0.00211198
0.009680858
0.0005282251
-0.002576337
0.01274915
0.0005879462
-0.003279489
0.0006329445
-0.004165025
-0.01248546
0.0008706634
-0.004085908
-0.009496121
0.0008185843
-0.003223178
-0.007186472
0.0007538969
-0.002538105
-0.005319374
0.0006742181
-0.002088742
-0.003766746
0.0005713816
-0.001763892
-0.002458731
0.0004383742
-0.001503817
-0.001361408
0.0002709916
-0.001271813
-0.0004657825
6.89229e-05
-0.001043339
0.0002208304
-0.000163574
-0.000803672
0.0006864274
-0.0004185403
-0.0005472573
0.0009218646
-0.0006796021
-0.0002815694
0.000933781
-0.0009272123
-2.567416e-05
0.0007439825
-0.001140225
0.0002073764
0.0004061808
-0.001295722
0.0003766635
-1.292495e-05
-0.001377467
0.0004680385
-0.0004317386
-0.001378813
0.0004677449
-0.0007685537
-0.001299542
0.000375668
-0.0009562652
-0.001145901
0.0002052059
-0.0009403161
-0.0009339963
-2.993934e-05
-0.0006982872
-0.0006866645
-0.0002885926
-0.0002229754
-0.0004251104
-0.0005576175
0.0004770535
-0.0001689177
-0.0008180737
0.001390343
6.526015e-05
-0.00106236
0.002510153
0.0002693412
-0.001296031
0.003846002
0.0004388389
-0.001533784
0.0054326
0.0005738528
-0.001800313
0.007341385
0.0006784484
-0.002133092
0.009703248
0.0007593995
-0.002593033
0.01276098
0.0008244613
-0.003294246
0.0008752473
-0.004179217
-0.01249184
0.001133735
-0.004112127
-0.009512321
0.001084973
-0.003245903
-0.007223091
0.001026583
-0.002561912
-0.005385599
0.0009536356
-0.002116906
-0.003869443
0.0008556379
-0.001800408
-0.002601868
0.0007242041
-0.001553401
-0.001545406
0.0005546896
-0.001340155
-0.0006863383
0.0003468827
-0.001137023
-2.586413e-05
0.0001060108
-0.0009300547
0.0004299428
-0.0001600964
-0.0007142466
0.0006759741
-0.0004311012
-0.0004945279
0.000720315
-0.0006891005
-0.0002824485
0.0005886238
-0.0009099952
-9.853397e-05
0.0003248871
-0.001072523
4.05419e-05
-1.169777e-05
-0.001159355
0.0001184775
-0.0003479306
-0.001160509
0.0001179331
-0.0006104648
-0.001075801
3.879801e-05
-0.0007397983
-0.0009148318
-0.0001017315
-0.0006912545
-0.0006946997
-0.0002878362
-0.0004385869
-0.0004366131
-0.0005027148
2.69032e-05
-0.0001648281
-0.0007257682
0.0007007284
0.0001027588
-0.0009454975
0.001577289
0.0003455782
-0.001156874
0.002655922
0.0005556106
-0.001364898
0.003950922
0.0007273795
-0.001583536
0.005500556
0.0008608947
-0.001836672
0.007379039
0.0009606509
-0.002160681
0.009719374
0.001034844
-0.002615775
0.01276529
0.001093713
-0.003315167
0.001141928
-0.004201175
-0.01248011
0.00142647
-0.004145019
-0.009511114
0.001391537
-0.003275555
-0.007245278
0.001353445
-0.002592694
-0.005442049
0.001302786
-0.002152376
-0.003967886
0.001226274
-0.001844794
-0.002746288
0.001114163
-0.001611552
-0.001735419
0.0009615185
-0.001417694
-0.0009163352
0.0007683883
-0.001240585
-0.0002836301
0.0005401301
-0.00106682
0.0001603741
0.000287066
-0.0008911624
0.0004165523
2.801792e-05
-0.0007152931
0.0004964631
-0.0002198494
-0.0005491575
0.0004235496
-0.0004321177
-0.0004049597
0.000237197
-0.0005881209
-0.0002980459
-1.012959e-05
-0.0006709388
-0.0002410856
-0.0002570363
-0.0006717349
-0.0002418631
-0.000442066
-0.0005903488
-0.0003004187
-0.0005124279
-0.0004352513
-0.0004092144
-0.0004281856
-0.0002232159
-0.000555722
-0.0001653915
2.530029e-05
-0.0007247033
0.0002883119
0.0002854045
-0.0009039319
0.0009342257
0.0005402611
-0.001083412
0.001770545
0.0007706791
-0.001261416
0.002803202
0.000966123
-0.001443164
0.004051716
0.001121018
-0.001642148
0.005558756
0.001235135
-0.001881276
0.007402223
0.001313275
-0.002196087
0.009718176
0.001365065
-0.00264617
0.01275217
0.001403683
-0.003343964
0.001438461
-0.0042323
-0.01243766
0.001755177
-0.004187692
-0.009479219
0.00174735
-0.003314253
-0.007239361
0.001746084
-0.002632492
-0.005474555
0.00173499
-0.002197007
-0.004047054
0.001697253
-0.001898475
-0.002875787
0.001621719
-0.001678819
-0.001914006
0.001503367
-0.001503625
-0.001137507
0.001342764
-0.00135087
-0.0005355781
0.001145887
-0.001207681
-0.0001043344
0.00092391
-0.001068083
0.0001630343
0.000693066
-0.0009324125
0.0002784583
0.00047167
-0.000806939
0.0002640464
0.0002817363
-0.0006994379
0.0001535783
0.0001425969
-0.0006202456
-8.366117e-06
6.923114e-05
-0.0005782214
-0.0001698514
6.896935e-05
-0.0005792149
-0.0002788901
0.0001419268
-0.0006232327
-0.000290602
0.0002810681
-0.0007046034
-0.0001707527
0.0004715749
-0.000814636
0.0001034113
0.0006941787
-0.0009430383
0.0005442107
0.0009267153
-0.001082106
0.001159128
0.001150823
-0.001225474
0.001952525
0.001350062
-0.001372776
0.002935617
0.001513043
-0.001530008
0.004133207
0.001633592
-0.00171016
0.005592903
0.001710979
-0.001935536
0.007397182
0.001750117
-0.002241117
0.009686293
0.001762094
-0.002686136
0.01270877
0.001763732
-0.003382521
0.001771452
-0.004274406
-0.01234867
0.002128451
-0.004243648
-0.009400833
0.002164951
-0.003365434
-0.00719017
0.002220385
-0.00268496
-0.005468516
0.002267943
-0.002254602
-0.004092538
0.002286387
-0.001965109
-0.002975668
0.002263274
-0.001758421
-0.002065849
0.002193888
-0.001600336
-0.001333548
0.00207968
-0.001469213
-0.0007627368
0.001927378
-0.001352297
-0.0003439224
0.001748414
-0.001243314
-6.799091e-05
0.001558054
-0.001140915
7.821065e-05
0.001373737
-0.001048265
0.0001160575
0.001214977
-0.0009710837
7.539855e-05
0.001098472
-0.0009152121
-6.36731e-06
0.001036981
-0.0008859802
-8.763177e-05
0.001037402
-0.0008871645
-0.0001267885
0.001099846
-0.0009187583
-8.6125e-05
0.001217516
-0.0009771076
6.458391e-05
0.001377894
-0.001057024
0.000347251
0.001564275
-0.001152759
0.0007755373
0.001757028
-0.001258595
0.001359076
0.001938609
-0.001371321
0.002107853
0.002093573
-0.001492284
0.00303841
0.002210289
-0.001627799
0.004180909
0.002281842
-0.001790744
0.00558831
0.002306634
-0.002003053
0.00734862
0.002289282
-0.002299471
0.009607712
0.002242207
-0.002739201
0.01261878
0.002186743
-0.00343407
0.002149906
-0.004330526
-0.01219253
0.002559627
-0.004317979
-0.009257025
0.002663997
-0.003434547
-0.00708114
0.002800842
-0.002756337
-0.005409578
0.002928314
-0.002331929
-0.004091545
0.003020101
-0.002051742
-0.003034029
0.003063101
-0.001857339
-0.002179416
0.003053815
-0.001714536
-0.00149316
0.002995294
-0.001601865
-0.000954632
0.002895474
-0.001506621
-0.0005503184
0.002766174
-0.001422069
-0.0002684947
0.002622044
-0.00134581
-9.539366e-05
0.002479289
-0.001278649
-1.152742e-05
0.002354645
-0.00122353
8.738912e-06
0.002262649
-0.001184439
-4.124126e-06
0.002214427
-0.001164578
-1.644393e-05
0.002215663
-0.001165937
5.521089e-06
0.00226637
-0.001188485
9.220189e-05
0.002361144
-0.001230304
0.0002698366
0.002488702
-0.001288438
0.0005583453
0.002634621
-0.001358851
0.0009719459
0.002782058
-0.001438626
0.001522845
0.002914669
-0.001526955
0.002225042
0.003017631
-0.001626252
0.003099698
0.003078934
-0.001743297
0.004182017
0.00309046
-0.001890933
0.005530558
0.003049003
-0.002090907
0.007239838
0.002957964
-0.002377958
0.00946327
0.002830431
-0.002811652
0.01246129
0.00269288
-0.003504154
0.002587505
-0.004405734
-0.01194213
0.003070986
-0.004418458
-0.009025032
0.003277507
-0.003530605
-0.006894627
0.003527628
-0.002857187
-0.005284493
0.003758882
-0.002440699
-0.004034012
0.003940324
-0.002170701
-0.003042813
0.004060111
-0.001988205
-0.002247839
0.004117757
-0.001858912
-0.001610212
0.004119235
-0.001761564
-0.001105732
0.004074505
-0.001683507
-0.0007181042
0.003996286
-0.001617735
-0.0004339921
0.003898949
-0.001561012
-0.0002394193
0.003797509
-0.001512789
-0.0001171561
0.003706626
-0.00147424
-4.608222e-05
0.003638923
-0.001447343
-1.41388e-06
0.003603706
-0.001433944
4.379616e-05
0.003605914
-0.001435458
0.0001164919
0.003645556
-0.001451878
0.0002417103
0.003717785
-0.001481855
0.0004408211
0.003813244
-0.001523648
0.0007314798
0.003919285
-0.001575319
0.001128099
0.004021146
-0.001635704
0.001644473
0.004103667
-0.001705367
0.002297371
0.004152295
-0.001787557
0.003111534
0.004154116
-0.001889341
0.004126524
0.004098971
-0.002023497
0.005406393
0.003980711
-0.002211573
0.007053084
0.003799674
-0.002488397
0.009229965
0.003567667
-0.002914112
0.01220875
0.003315813
-0.003601709
0.003107094
-0.004507678
-0.01155952
0.003701878
-0.004557082
-0.008676763
0.00406332
-0.00366857
-0.006612185
0.004468627
-0.003005572
-0.005082257
0.004829743
-0.002600784
-0.003913827
0.005114746
-0.002342847
-0.002998814
0.00531737
-0.002172269
-0.002269498
0.005443379
-0.002054933
-0.00168395
0.005503653
-0.001969961
-0.00121579
0.005511348
-0.001904999
-0.0008472831