/*--------------------------------*- C++ -*----------------------------------*\
| =========                 |                                                 |
| \\      /  F ield         | OpenFOAM: The Open Source CFD Toolbox           |
|  \\    /   O peration     | Version:  2506                                  |
|   \\  /    A nd           | Website:  www.openfoam.com                      |
|    \\/     M anipulation  |                                                 |
\*---------------------------------------------------------------------------*/
FoamFile
{
    version     2.0;
    format      ascii;
    arch        "LSB;label=32;scalar=64";
    class       volVectorField;
    location    "4000/air";
    object      U;
}
// * * * * * * * * * * * * * * * * * * * * * * * * * * * * * * * * * * * * * //

dimensions      [0 1 -1 0 0 0 0];

internalField   nonuniform List<vector> 
33752
(
(-0.08070648 -0.08110776 -0.04426565)
(-0.05545385 -0.097642 -0.03986505)
(-0.04259042 -0.1090475 -0.03643945)
(-0.03442087 -0.116648 -0.03422149)
(-0.02835527 -0.1216373 -0.03272305)
(-0.02356818 -0.1249127 -0.03168153)
(-0.01960601 -0.1270376 -0.03094406)
(-0.01621387 -0.1283704 -0.03041463)
(-0.01324675 -0.1291548 -0.03002912)
(-0.01061449 -0.1295665 -0.029748)
(-0.008256142 -0.1297376 -0.02954363)
(-0.006122743 -0.1297711 -0.0294001)
(-0.00416946 -0.1297461 -0.02930661)
(-0.002350797 -0.1297223 -0.02925793)
(-0.0006207696 -0.1297417 -0.02924875)
(0.001086921 -0.1298324 -0.02927032)
(0.002825518 -0.1299915 -0.02932333)
(0.004661131 -0.1301901 -0.02941765)
(0.006638601 -0.1303862 -0.02955722)
(0.008805647 -0.1305189 -0.02974774)
(0.01120885 -0.1305071 -0.02999935)
(0.0138986 -0.130246 -0.03032861)
(0.01693767 -0.1296008 -0.03076228)
(0.02041777 -0.1283927 -0.03134081)
(0.02448627 -0.1263739 -0.03212753)
(0.0294009 -0.1231799 -0.03322034)
(0.03562102 -0.1182381 -0.03477265)
(0.04398232 -0.1106353 -0.03705283)
(0.0571094 -0.09915152 -0.04055812)
(0.08284874 -0.08242481 -0.04505263)
(-0.09722889 -0.05584915 -0.03985901)
(-0.06603973 -0.06642893 -0.03388215)
(-0.04920855 -0.07532689 -0.0299096)
(-0.03847835 -0.08189888 -0.02755113)
(-0.03075243 -0.0865505 -0.02604544)
(-0.02488516 -0.0897594 -0.02504615)
(-0.02021056 -0.09190437 -0.0243669)
(-0.01634964 -0.0932685 -0.02389186)
(-0.01308496 -0.09406651 -0.02355368)
(-0.01028463 -0.09446711 -0.02330883)
(-0.007859835 -0.09460624 -0.02313197)
(-0.00574251 -0.09459526 -0.02300632)
(-0.003869632 -0.09452387 -0.02292364)
(-0.002177293 -0.09446074 -0.02287867)
(-0.0005966106 -0.09445098 -0.02286836)
(0.0009545452 -0.09451348 -0.02288537)
(0.002542723 -0.09464793 -0.02293051)
(0.00425175 -0.09483515 -0.02301115)
(0.006150157 -0.09502794 -0.02313039)
(0.008303835 -0.0951562 -0.02329291)
(0.0107775 -0.09512858 -0.02350755)
(0.0136414 -0.0948319 -0.02379042)
(0.01698637 -0.09412787 -0.02416761)
(0.02094707 -0.09284505 -0.02468196)
(0.02574402 -0.09076505 -0.02540223)
(0.03176149 -0.0876 -0.02644429)
(0.03967417 -0.08296416 -0.02799823)
(0.05064384 -0.07637015 -0.03041505)
(0.06781041 -0.06739979 -0.0344729)
(0.099589 -0.05669278 -0.04056476)
(-0.1086056 -0.04296713 -0.03642415)
(-0.07493108 -0.04956819 -0.02990089)
(-0.05558063 -0.05593372 -0.02549233)
(-0.04280542 -0.06107968 -0.02290812)
(-0.03352993 -0.06494188 -0.02129083)
(-0.02652463 -0.06768954 -0.02024323)
(-0.02102793 -0.06953382 -0.01954389)
(-0.01658471 -0.07067085 -0.01906204)
(-0.0129271 -0.07127333 -0.0187182)
(-0.009888142 -0.07149189 -0.01846699)
(-0.007355185 -0.07145904 -0.0182798)
(-0.005239008 -0.07129011 -0.0181422)
(-0.003456946 -0.07108307 -0.01804614)
(-0.001921928 -0.07091552 -0.01798963)
(-0.0005403963 -0.07084161 -0.01797082)
(0.0007966352 -0.0708885 -0.01798484)
(0.002186323 -0.07105547 -0.0180318)
(0.003738866 -0.07131509 -0.01811753)
(0.005548231 -0.07161222 -0.01824319)
(0.007703549 -0.07186812 -0.01841134)
(0.01028984 -0.07198354 -0.01862946)
(0.01339864 -0.07184141 -0.01891267)
(0.01714553 -0.07130727 -0.01928891)
(0.02170049 -0.07022799 -0.01980464)
(0.02733579 -0.06842802 -0.02053899)
(0.03451266 -0.06570747 -0.02162526)
(0.04400349 -0.0618508 -0.02328668)
(0.05705536 -0.05668352 -0.02592866)
(0.0767889 -0.05026584 -0.03042467)
(0.1111048 -0.04358637 -0.03706966)
(-0.1161671 -0.03477392 -0.03419372)
(-0.08148615 -0.03880659 -0.02753214)
(-0.06072325 -0.0431178 -0.0228992)
(-0.04654896 -0.046855 -0.02016704)
(-0.03605128 -0.04977378 -0.01845688)
(-0.0280485 -0.0518706 -0.01734755)
(-0.02177011 -0.05323563 -0.0166068)
(-0.01673881 -0.05399121 -0.0160904)
(-0.01266485 -0.05426758 -0.0157152)
(-0.009365214 -0.05419548 -0.01543046)
(-0.006711931 -0.05390122 -0.01520929)
(-0.004601063 -0.05350373 -0.01503714)
(-0.002930124 -0.05310924 -0.01491027)
(-0.001588112 -0.05280539 -0.01482889)
(-0.000450866 -0.0526547 -0.01479541)
(0.0006225106 -0.05268921 -0.01480754)
(0.001768478 -0.05290846 -0.01486564)
(0.00312881 -0.05328052 -0.01497198)
(0.00482849 -0.05374215 -0.01512473)
(0.006981087 -0.05420497 -0.01532327)
(0.009691601 -0.05456156 -0.01557196)
(0.01306701 -0.05469158 -0.01588472)
(0.01723829 -0.05446684 -0.01628931)
(0.0223923 -0.05375458 -0.01683591)
(0.02882326 -0.05242208 -0.01760933)
(0.03701556 -0.0503445 -0.01875438)
(0.0477505 -0.04742872 -0.02050768)
(0.06222753 -0.0436761 -0.02329651)
(0.08340243 -0.03933053 -0.02801911)
(0.118751 -0.03525089 -0.03480306)
(-0.1211089 -0.02868225 -0.03267972)
(-0.08611264 -0.03104835 -0.02601402)
(-0.06457409 -0.03380282 -0.02127156)
(-0.04946628 -0.03631039 -0.01844728)
(-0.03804396 -0.038297 -0.01665724)
(-0.02921195 -0.03967878 -0.0154809)
(-0.0222365 -0.04047366 -0.01467868)
(-0.01665176 -0.04075049 -0.01410409)
(-0.01217277 -0.04060708 -0.01366781)
(-0.008616527 -0.04015724 -0.01332021)
(-0.005853091 -0.03952409 -0.01303376)
(-0.003769718 -0.03883168 -0.01279924)
(-0.00224835 -0.03819773 -0.0126167)
(-0.001151557 -0.03772186 -0.01249316)
(-0.0003209604 -0.03747747 -0.01243531)
(0.0004235709 -0.03750193 -0.01244635)
(0.001263151 -0.03779524 -0.01252603)
(0.002378567 -0.0383203 -0.01267207)
(0.003929663 -0.03900365 -0.01287764)
(0.006056604 -0.03974499 -0.0131364)
(0.008880583 -0.04042577 -0.01344782)
(0.01251748 -0.04092049 -0.01382173)
(0.01710087 -0.04110451 -0.01428508)
(0.02281752 -0.04086198 -0.01488859)
(0.02995738 -0.04009327 -0.0157215)
(0.03899309 -0.03872737 -0.01693297)
(0.05066938 -0.03674479 -0.01876486)
(0.06609796 -0.03422825 -0.02164633)
(0.08806689 -0.03145295 -0.02647864)
(0.1237453 -0.02905903 -0.0332675)
(-0.1243297 -0.0238692 -0.03161998)
(-0.08928965 -0.02514997 -0.0250003)
(-0.06730403 -0.02676066 -0.02021211)
(-0.05155551 -0.02826498 -0.01732731)
(-0.03942588 -0.02941655 -0.01547072)
(-0.02990746 -0.03010605 -0.01422198)
(-0.02231823 -0.03031273 -0.01334455)
(-0.01622476 -0.03007329 -0.01268713)
(-0.01136324 -0.02946277 -0.01216128)
(-0.007566967 -0.02858507 -0.01171587)
(-0.004714293 -0.02756324 -0.01132886)
(-0.002693284 -0.02653048 -0.01099603)
(-0.001372678 -0.02561922 -0.01072745)
(-0.0005889919 -0.02494439 -0.01053837)
(-0.0001435989 -0.02459309 -0.01044427)
(0.0001894483 -0.02460934 -0.01045426)
(0.0006437793 -0.02499343 -0.01056837)
(0.001445967 -0.02570207 -0.01077771)
(0.002796514 -0.02664862 -0.01106772)
(0.004862287 -0.02771781 -0.01142296)
(0.007777826 -0.02877635 -0.0118339)
(0.0116588 -0.0296899 -0.01230417)
(0.01663046 -0.03033369 -0.01285651)
(0.02286366 -0.03060217 -0.01354164)
(0.03062689 -0.03041836 -0.01444957)
(0.04036052 -0.0297441 -0.0157325)
(0.05275676 -0.02859874 -0.01763128)
(0.0688393 -0.02709136 -0.02057281)
(0.09126794 -0.02546924 -0.02545201)
(0.1269998 -0.02417244 -0.03219413)
(-0.1263933 -0.01988309 -0.03086214)
(-0.091397 -0.02044708 -0.02430498)
(-0.06912537 -0.02123105 -0.01949965)
(-0.05290818 -0.02194908 -0.01657499)
(-0.04021637 -0.02239908 -0.01465774)
(-0.03011585 -0.02247027 -0.01333411)
(-0.0219802 -0.02212593 -0.01236596)
(-0.01541652 -0.02138354 -0.01160334)
(-0.01019521 -0.02030533 -0.01095507)
(-0.006176538 -0.01898965 -0.01037415)
(-0.00325917 -0.01756473 -0.009842783)
(-0.001339391 -0.01617435 -0.009368521)
(-0.0002785868 -0.01496966 -0.008973986)
(0.0001153815 -0.01408399 -0.008690766)
(8.514188e-05 -0.01362016 -0.008545215)
(-8.692758e-05 -0.01362949 -0.008554365)
(-0.0001084804 -0.01411273 -0.00871786)
(0.0003033442 -0.01501974 -0.009019862)
(0.001393654 -0.01624844 -0.009434167)
(0.003358571 -0.01766541 -0.009930007)
(0.006340431 -0.01911906 -0.01048431)
(0.01044681 -0.02046416 -0.01108993)
(0.01578308 -0.02157102 -0.01176408)
(0.02249287 -0.02233934 -0.01255461)
(0.03081061 -0.02270529 -0.01355278)
(0.0411356 -0.02264974 -0.01491106)
(0.05410425 -0.02220855 -0.01687017)
(0.07066567 -0.02149197 -0.01985238)
(0.09339022 -0.0207031 -0.02474878)
(0.1290862 -0.02012997 -0.03142894)
(-0.127659 -0.01647022 -0.03031056)
(-0.09271847 -0.01656173 -0.02381258)
(-0.07023514 -0.01675955 -0.01900369)
(-0.05364757 -0.01688584 -0.01604632)
(-0.0404854 -0.01677885 -0.01407192)
(-0.02987501 -0.01633789 -0.01266605)
(-0.02124128 -0.01551987 -0.01159294)
(-0.01423669 -0.01433296 -0.01069883)
(-0.008672174 -0.01283089 -0.009893974)
(-0.004446232 -0.01111154 -0.009132316)
(-0.001485584 -0.009311028 -0.008404855)
(0.0002972686 -0.007581091 -0.007730516)
(0.001037708 -0.006099871 -0.007160834)
(0.0009641828 -0.005016733 -0.006748979)
(0.0003675309 -0.004444619 -0.006535845)
(-0.0004106418 -0.004448282 -0.006543764)
(-0.000999297 -0.005028561 -0.006772904)
(-0.001056015 -0.006123003 -0.007201644)
(-0.0002868278 -0.00761923 -0.007790188)
(0.001540995 -0.009368288 -0.008485275)
(0.004566962 -0.0111915 -0.009235612)
(0.008883018 -0.01293591 -0.01002174)
(0.01456634 -0.01446357 -0.010853)
(0.02172256 -0.01567484 -0.01177501)
(0.03054514 -0.01651403 -0.01287885)
(0.04138795 -0.01697168 -0.01431937)
(0.05483542 -0.0170896 -0.01633649)
(0.07177593 -0.01696824 -0.01935149)
(0.09472072 -0.01676949 -0.02425269)
(0.1303683 -0.01667274 -0.03087367)
(-0.1283706 -0.01348645 -0.02990135)
(-0.09346927 -0.01327701 -0.02345596)
(-0.07080662 -0.01307866 -0.01864499)
(-0.05390463 -0.01278558 -0.01565833)
(-0.0403316 -0.01227082 -0.01362414)
(-0.02926097 -0.01144468 -0.01212949)
(-0.02016481 -0.01026435 -0.01093445)
(-0.01274032 -0.008731631 -0.009883977)
(-0.006845115 -0.006896118 -0.008884566)
(-0.002422725 -0.004854792 -0.007892096)
(0.0005668545 -0.002738892 -0.006897517)
(0.002179446 -0.0007031353 -0.005945679)
(0.002564503 0.001050162 -0.005128463)
(0.001959202 0.002338739 -0.004529207)
(0.0007040229 0.003022217 -0.004213457)
(-0.0007860542 0.003023276 -0.004220024)
(-0.00203377 0.002340561 -0.004549022)
(-0.002623144 0.001048761 -0.005163312)
(-0.002210155 -0.0007127966 -0.00599811)
(-0.0005530741 -0.002762388 -0.006970727)
(0.002502632 -0.004896671 -0.007988271)
(0.007016956 -0.006959708 -0.009005898)
(0.01303431 -0.008818978 -0.01003209)
(0.02061513 -0.01037506 -0.01111146)
(0.02990618 -0.01157669 -0.01233765)
(0.04121609 -0.01242031 -0.013868)
(0.05508205 -0.01294779 -0.01594526)
(0.07234481 -0.01324788 -0.01899077)
(0.09547723 -0.01344754 -0.02389478)
(0.1310937 -0.01365288 -0.03046471)
(-0.1287036 -0.01084234 -0.02959462)
(-0.09381828 -0.01046133 -0.02319167)
(-0.07099082 -0.01002136 -0.01837833)
(-0.0538106 -0.009465113 -0.01536051)
(-0.03986937 -0.008691459 -0.01326493)
(-0.02837832 -0.00762329 -0.01167349)
(-0.01885001 -0.006218668 -0.01034362)
(-0.01102626 -0.004476915 -0.009112889)
(-0.004812315 -0.002443067 -0.007882905)
(-0.000174102 -0.0001833941 -0.006588717)
(0.002829823 0.002142485 -0.005256136)
(0.004238116 0.004316508 -0.003992083)
(0.004219017 0.006180964 -0.002901611)
(0.003026991 0.00755144 -0.002096144)
(0.001065952 0.008280775 -0.001669067)
(-0.001184138 0.008285059 -0.001673968)
(-0.003138491 0.007562818 -0.002111339)
(-0.004315954 0.006194965 -0.002929451)
(-0.004308439 0.00432734 -0.004036079)
(-0.002856799 0.002143724 -0.00532038)
(0.000214466 -0.0001981254 -0.006677276)
(0.004946579 -0.002476818 -0.007997592)
(0.01128539 -0.004532992 -0.009255551)
(0.01926977 -0.006297504 -0.010516)
(0.02899829 -0.007723246 -0.01187831)
(0.04073495 -0.008809499 -0.01350616)
(0.05497605 -0.009596733 -0.01564616)
(0.07252477 -0.01016118 -0.01872376)
(0.09583077 -0.01060268 -0.02363226)
(0.1314408 -0.0109782 -0.03016189)
(-0.1287879 -0.008476955 -0.02936123)
(-0.09390104 -0.008025466 -0.02299424)
(-0.07092041 -0.007474693 -0.01817524)
(-0.05349208 -0.006795895 -0.01512607)
(-0.03922214 -0.005910194 -0.01296693)
(-0.02735049 -0.004751079 -0.01127608)
(-0.01742552 -0.003280337 -0.009802791)
(-0.009231266 -0.001493935 -0.008376673)
(-0.002705442 0.0005703731 -0.006880035)
(0.002139915 0.002845572 -0.005248469)
(0.005119442 0.005148332 -0.003580787)
(0.006351734 0.007349755 -0.001981749)
(0.005928659 0.009246997 -0.0005855963)
(0.004138504 0.01063622 0.0004457974)
(0.001446418 0.01136445 0.0009771378)
(-0.00159874 0.0113707 0.0009739488)
(-0.004285098 0.01065323 0.0004357103)
(-0.006062335 0.00926979 -0.0006060783)
(-0.00645981 0.007372214 -0.002016691)
(-0.005184473 0.005163814 -0.003635601)
(-0.002138164 0.002848044 -0.005328002)
(0.002803788 0.0005547757 -0.006988268)
(0.009456723 -0.001530137 -0.008514018)
(0.01781546 -0.003338071 -0.009971362)
(0.02794556 -0.004829441 -0.01147818)
(0.04006849 -0.006006371 -0.01320694)
(0.05464495 -0.006905923 -0.01541167)
(0.07244976 -0.007592944 -0.01852279)
(0.09591959 -0.008144169 -0.02343967)
(0.1315455 -0.008585106 -0.02993943)
(-0.1287178 -0.006337243 -0.02917961)
(-0.09382847 -0.005900386 -0.02284654)
(-0.07071103 -0.00534877 -0.01802133)
(-0.05306817 -0.004673401 -0.01494064)
(-0.03851408 -0.0038134 -0.01272096)
(-0.02631072 -0.00271513 -0.01093317)
(-0.01603518 -0.001344293 -0.009319513)
(-0.007506846 0.0003063533 -0.007694278)
(-0.0006798763 0.002201459 -0.005921223)
(0.004300724 0.004272611 -0.003978443)
(0.007306329 0.006400322 -0.001976301)
(0.008368232 0.00843217 -3.739643e-05)
(0.007544064 0.01015374 0.001626359)
(0.005179018 0.01141414 0.002897059)
(0.001804427 0.01208246 0.00358661)
(-0.001986545 0.01208903 0.003584991)
(-0.005356104 0.01143212 0.002891507)
(-0.007710714 0.01017846 0.001613446)
(-0.008511752 0.008457648 -6.278763e-05)
(-0.007406627 0.006420151 -0.002021992)
(-0.004334879 0.004281509 -0.004049552)
(0.0007439943 0.002193421 -0.006022632)
(0.007701332 0.0002800475 -0.007827075)
(0.01639722 -0.001390279 -0.009485018)
(0.02688201 -0.002780279 -0.01113395)
(0.03934178 -0.003895356 -0.01296104)
(0.05420852 -0.004768417 -0.01522843)
(0.07223635 -0.005451617 -0.01837389)
(0.09585767 -0.006002085 -0.02330265)
(0.1315162 -0.006422644 -0.02978415)
(-0.128604 -0.004379576 -0.02905998)
(-0.09369555 -0.00402281 -0.02274372)
(-0.07046146 -0.003560576 -0.01790946)
(-0.05264526 -0.002994522 -0.01480061)
(-0.03786281 -0.002282358 -0.01252716)
(-0.02539128 -0.001383141 -0.01065469)
(-0.0148298 -0.0002706206 -0.008916327)
(-0.006031002 0.001060682 -0.007117117)
(0.0010627 0.002601358 -0.005098187)
(0.006151494 0.004269242 -0.002883531)
(0.009187826 0.005993073 -0.0005768946)
(0.01007408 0.007622832 0.001629063)
(0.008919615 0.009012892 0.003597951)
(0.006076556 0.01003773 0.005093556)
(0.002115099 0.01058318 0.005916382)
(-0.00232407 0.01058851 0.005916165)
(-0.006280813 0.01005219 0.005092333)
(-0.009114422 0.009032491 0.003591492)
(-0.01024759 0.007642665 0.001610894)
(-0.009319497 0.006007835 -0.0006146015)
(-0.006216248 0.004274209 -0.002947271)
(-0.001029086 0.002592562 -0.005193703)
(0.006198127 0.001036166 -0.007246473)
(0.01516694 -0.0003122967 -0.009080614)
(0.02594115 -0.001441082 -0.01085609)
(0.0386734 -0.002354434 -0.01276994)
(0.05377375 -0.003077663 -0.01509369)
(0.07198283 -0.003649621 -0.01827248)
(0.09573691 -0.004109017 -0.02321946)
(0.1314474 -0.004447394 -0.02969609)
(-0.1284812 -0.00255976 -0.02898041)
(-0.09356808 -0.002329025 -0.02267777)
(-0.07024934 -0.002022652 -0.01783701)
(-0.05231093 -0.001647877 -0.01470617)
(-0.03736768 -0.001179046 -0.01239233)
(-0.02470639 -0.0005911502 -0.0104558)
(-0.01394194 0.0001334125 -0.008624501)
(-0.004952191 0.0009986843 -0.006698026)
(0.00234137 0.002008932 -0.00449348)
(0.007508833 0.003090856 -0.002074418)
(0.01056111 0.004216175 0.0004552925)
(0.011319 0.005269895 0.002900427)
(0.009930022 0.006180228 0.005093713)
(0.006735761 0.00685156 0.006767165)
(0.002343773 0.007209392 0.007695317)
(-0.002575305 0.007212012 0.00769613)
(-0.006962455 0.006858459 0.006769102)
(-0.01014788 0.006188729 0.005092329)
(-0.0115159 0.005276592 0.002888331)
(-0.01071846 0.004218339 0.0004257338)
(-0.007597391 0.003084574 -0.002132864)
(-0.002331739 0.001992353 -0.004585)
(0.005097471 0.0009704118 -0.006825778)
(0.01425935 9.246454e-05 -0.00878932)
(0.02523947 -0.0006437172 -0.01066026)
(0.03816473 -0.001241536 -0.01264032)
(0.0534304 -0.001717515 -0.01500744)
(0.07176898 -0.002095132 -0.01821143)
(0.09562161 -0.002397082 -0.02316998)
(0.1313647 -0.002612477 -0.02964435)
(-0.1284036 -0.0008325504 -0.02894524)
(-0.09349387 -0.0007514546 -0.02264806)
(-0.07012913 -0.0006426551 -0.01780293)
(-0.05212777 -0.0005100355 -0.01465956)
(-0.03710191 -0.00034573 -0.01232292)
(-0.02434294 -0.0001408261 -0.01035125)
(-0.0134737 0.0001101517 -0.008469757)
(-0.004382024 0.0004113035 -0.006477093)
(0.003017111 0.0007649225 -0.00417189)
(0.008226684 0.001142385 -0.001643163)
(0.01127578 0.001537252 0.0009895969)
(0.01197342 0.001907954 0.003590848)
(0.01046259 0.002230051 0.005916082)
(0.007083366 0.002468487 0.007694335)
(0.002463559 0.002595157 0.008685397)
(-0.002710977 0.002594076 0.008686683)
(-0.007325606 0.002464993 0.007697803)
(-0.01069597 0.00222333 0.005917181)
(-0.01218552 0.001896956 0.003581497)
(-0.01144844 0.00152132 0.0009620978)
(-0.008330589 0.001120373 -0.00169926)
(-0.003022626 0.0007365988 -0.004261657)
(0.004513864 0.0003763778 -0.006604611)
(0.01377849 6.890308e-05 -0.008635815)
(0.02486527 -0.0001879448 -0.01055835)
(0.03789073 -0.0003971766 -0.01257484)
(0.05324232 -0.0005638925 -0.01496621)
(0.07164886 -0.0006959646 -0.01818454)
(0.09555612 -0.0008001535 -0.02315015)
(0.1313102 -0.0008710498 -0.02962508)
(-0.128399 0.0008699246 -0.02894334)
(-0.09349127 0.0007944408 -0.02264667)
(-0.07012789 0.0006898943 -0.01780179)
(-0.05212744 0.0005602261 -0.01465854)
(-0.0371023 0.0003976179 -0.01232196)
(-0.02434393 0.0001931785 -0.01035038)
(-0.01347513 -5.847121e-05 -0.008469103)
(-0.004383928 -0.0003609334 -0.006476513)
(0.003014708 -0.000717113 -0.004171317)
(0.008223954 -0.001098074 -0.001642572)
(0.01127268 -0.001497303 0.0009901462)
(0.01197007 -0.001873368 0.003591388)
(0.01045914 -0.002201489 0.005916565)
(0.007079978 -0.002446372 0.007694706)
(0.002460257 -0.002579595 0.008685608)
(-0.00271398 -0.002584983 0.008686718)
(-0.007328357 -0.002461819 0.007697751)
(-0.01069849 -0.002225667 0.005917092)
(-0.01218789 -0.001904445 0.003581388)
(-0.01145075 -0.001533695 0.0009619748)
(-0.008332926 -0.001137459 -0.001699401)
(-0.003025168 -0.0007583685 -0.004261873)
(0.004511282 -0.0004031124 -0.00660506)
(0.01377596 -0.0001004211 -0.008636605)
(0.02486299 0.0001520704 -0.01055959)
(0.03788898 0.0003581735 -0.0125764)
(0.05324144 0.0005235562 -0.01496809)
(0.07164927 0.0006569814 -0.0181868)
(0.0955585 0.0007662255 -0.0231529)
(0.1313157 0.0008462196 -0.02962915)
(-0.1284675 0.002597887 -0.02897483)
(-0.09356059 0.002371967 -0.02267367)
(-0.07024576 0.002069635 -0.01783376)
(-0.05230998 0.001697735 -0.01470327)
(-0.03736887 0.001230547 -0.0123896)
(-0.02470946 0.0006431533 -0.0104532)
(-0.01394647 -8.191316e-05 -0.00862222)
(-0.0049578 -0.0009490027 -0.00669616)
(0.002334182 -0.001961932 -0.004491768)
(0.007500671 -0.003047439 -0.002072693)
(0.01055186 -0.004177091 0.0004567752)
(0.01130902 -0.005236084 0.002901851)
(0.009919838 -0.006152305 0.005094847)
(0.006725803 -0.006829862 0.006767957)
(0.002334152 -0.007193975 0.007695659)
(-0.002584035 -0.0072028 0.007696058)
(-0.006970445 -0.006855004 0.006768872)
(-0.01015524 -0.006190658 0.005092054)
(-0.01152284 -0.005283563 0.002888037)
(-0.01072524 -0.004230064 0.00042541)
(-0.007604285 -0.003100863 -0.00213325)
(-0.00233921 -0.002013186 -0.004585663)
(0.005089912 -0.0009958751 -0.006827293)
(0.01425174 -0.0001225556 -0.008792139)
(0.02523265 0.0006096986 -0.01066449)
(0.03815952 0.001204674 -0.01264561)
(0.05342772 0.001679365 -0.01501392)
(0.07177021 0.002058278 -0.01821904)
(0.09562878 0.002365301 -0.02317886)
(0.1313823 0.002588957 -0.02965724)
(-0.1285874 0.004417376 -0.02905492)
(-0.09368446 0.004065131 -0.02273744)
(-0.07045584 0.003606958 -0.01790433)
(-0.0526438 0.003043706 -0.01479606)
(-0.03786477 0.002333021 -0.01252288)
(-0.02539604 0.001434085 -0.01065063)
(-0.01483719 0.000320835 -0.008912609)
(-0.006040741 -0.001012577 -0.007113904)
(0.001050847 -0.002555878 -0.005095235)
(0.006138196 -0.004227396 -0.002880477)
(0.009172927 -0.005955459 -0.0005736352)
(0.01005792 -0.007590175 0.00163153)
(0.008903127 -0.008985796 0.003599655)
(0.006060475 -0.01001646 0.005094625)
(0.002099594 -0.01056778 0.005916812)
(-0.002338191 -0.01057897 0.005916057)
(-0.006293796 -0.01004823 0.005092051)
(-0.009126414 -0.009033761 0.003591169)
(-0.01025889 -0.007648819 0.001610551)
(-0.00933051 -0.006018521 -0.0006149843)
(-0.006227365 -0.004289133 -0.002947834)
(-0.001041029 -0.00261163 -0.005194815)
(0.006185944 -0.001058953 -0.007249102)
(0.01515498 0.0002859312 -0.009085622)
(0.02593054 0.001411911 -0.01086375)
(0.03866508 0.002323315 -0.01277972)
(0.05376934 0.00304569 -0.01510599)
(0.0719849 0.003618456 -0.01828647)
(0.09574836 0.004080903 -0.02323167)
(0.1314755 0.004425227 -0.02971612)
(-0.1286924 0.006373696 -0.02917117)
(-0.09381298 0.005941798 -0.02283877)
(-0.07070324 0.005394253 -0.01801458)
(-0.05306634 0.004721507 -0.01493446)
(-0.03851711 0.003862656 -0.01271516)
(-0.02631779 0.002764218 -0.01092762)
(-0.01604568 0.001392037 -0.009314241)
(-0.007520447 -0.0002604727 -0.007689558)
(-0.000696017 -0.002158539 -0.005916991)
(0.00428265 -0.004233646 -0.003974065)
(0.007286251 -0.006365454 -0.001971656)
(0.008346626 -0.008401898 -3.399361e-05)
(0.007521974 -0.01012834 0.001628631)
(0.005157489 -0.01139394 0.002898431)
(0.001783706 -0.0120676 0.003587204)
(-0.002005544 -0.01207956 0.003585008)
(-0.00537365 -0.01142792 0.002891336)
(-0.007726973 -0.01017924 0.001613211)
(-0.008527053 -0.008463058 -6.308498e-05)
(-0.0074214 -0.006429785 -0.002022353)
(-0.004349601 -0.004294831 -0.004050204)
(0.0007286606 -0.00221038 -0.006023963)
(0.007686052 -0.0002995622 -0.007830059)
(0.01638251 0.001369 -0.009490434)
(0.02686901 0.002757792 -0.01114202)
(0.03933159 0.003872317 -0.01297129)
(0.0542027 0.004745463 -0.01524139)
(0.07223733 0.00542908 -0.01838907)
(0.09586962 0.005979898 -0.02332007)
(0.1315493 0.006401696 -0.02980839)
(-0.1287546 0.008512633 -0.02934927)
(-0.09388151 0.008066126 -0.02298409)
(-0.07091092 0.007519143 -0.0181665)
(-0.05349025 0.006842559 -0.01511818)
(-0.03922654 0.005957588 -0.01295956)
(-0.02736 0.004797864 -0.01126912)
(-0.01743923 0.00332543 -0.009796151)
(-0.009248394 0.00153655 -0.00837045)
(-0.002725994 -0.0005307456 -0.006874596)
(0.002116878 -0.002809988 -0.005243458)
(0.00509478 -0.005117026 -0.00357609)
(0.006325526 -0.007322497 -0.001978084)
(0.005902022 -0.009224061 -0.0005828807)
(0.004112401 -0.0106178 0.0004474552)
(0.001421237 -0.0113508 0.0009779853)
(-0.001622018 -0.01136192 0.0009742139)
(-0.004306714 -0.01064931 0.000435742)
(-0.006082429 -0.009270542 -0.000606108)
(-0.006478679 -0.007377285 -0.002016835)
(-0.005202426 -0.005172741 -0.003635967)
(-0.002156181 -0.002860426 -0.005328787)
(0.002786229 -0.0005698298 -0.00698977)
(0.009439974 0.001513335 -0.008516678)
(0.01779977 0.003320502 -0.009975469)
(0.02793194 0.004811845 -0.01148378)
(0.04005796 0.005989195 -0.01321381)
(0.05463876 0.006889455 -0.01542004)
(0.07244968 0.007576897 -0.01853276)
(0.09592858 0.008127584 -0.02345183)
(0.1315688 0.008566232 -0.0299565)
(-0.128663 0.01087704 -0.02957907)
(-0.09379532 0.0105008 -0.02317886)
(-0.07098015 0.01006423 -0.01836751)
(-0.05380924 0.00950977 -0.01535078)
(-0.0398755 0.008736346 -0.01325599)
(-0.02839054 0.007667103 -0.01166512)
(-0.01886715 0.00626034 -0.01033578)
(-0.01104739 0.004515673 -0.009105525)
(-0.004836712 0.002478341 -0.007876159)
(-0.0002016381 0.0002157002 -0.006583042)
(0.002800941 -0.002114264 -0.005251238)
(0.004208181 -0.004292687 -0.00398817)
(0.004188594 -0.006161115 -0.002898648)
(0.002997129 -0.007535679 -0.00209405)
(0.001037124 -0.008269226 -0.001667729)
(-0.001211045 -0.008277803 -0.001673218)
(-0.003163629 -0.007559929 -0.002110929)
(-0.004339428 -0.006196315 -0.002929279)
(-0.004330417 -0.004332632 -0.004036183)
(-0.002877636 -0.00215266 -0.005320887)
(0.0001941512 0.0001860184 -0.006678286)
(0.004927569 0.002462957 -0.007999419)
(0.01126767 0.004517765 -0.009258077)
(0.01925376 0.006281875 -0.01051927)
(0.02898468 0.007707892 -0.01188229)
(0.04072449 0.008794764 -0.01351078)
(0.05496962 0.009582737 -0.01565157)
(0.07252349 0.01014759 -0.01873019)
(0.09583639 0.01058856 -0.02364027)
(0.1314557 0.01096195 -0.03017298)
(-0.128324 0.01351964 -0.02988237)
(-0.09344359 0.01331456 -0.02344053)
(-0.07079535 0.0131192 -0.01863193)
(-0.05390417 0.01282741 -0.01564673)
(-0.0403398 0.01231241 -0.01361354)
(-0.0292761 0.01148472 -0.01211977)
(-0.02018546 0.01030187 -0.01092547)
(-0.01276526 0.008765934 -0.009875754)
(-0.006873365 0.006926817 -0.008877051)
(-0.002453311 0.004881797 -0.007885445)
(0.0005342927 0.002762404 -0.006892095)
(0.00214585 0.0007230616 -0.005941451)
(0.002530818 -0.001033802 -0.005125203)
(0.001926263 -0.002326082 -0.004526803)
(0.0006722689 -0.003013329 -0.00421173)
(-0.0008159295 -0.003018206 -0.004218879)
(-0.00206189 -0.002339356 -0.004548351)
(-0.002649524 -0.001051398 -0.005163052)
(-0.002234893 0.0007067162 -0.005998319)
(-0.0005763839 0.002753134 -0.006971557)
(0.002480994 0.004885077 -0.007989905)
(0.006996868 0.006946387 -0.009008111)
(0.01301602 0.008804646 -0.01003479)
(0.02059899 0.01036044 -0.01111456)
(0.02989264 0.01156228 -0.01234107)
(0.04120568 0.01240641 -0.01387174)
(0.05507535 0.0129345 -0.0159494)
(0.07234249 0.01323502 -0.01899546)
(0.09548024 0.01343453 -0.02390036)
(0.1311029 0.01363878 -0.03047218)
(-0.1276074 0.01650104 -0.03028836)
(-0.09269084 0.01659647 -0.02379442)
(-0.07022382 0.01679673 -0.01898841)
(-0.05364844 0.01692383 -0.01603272)
(-0.04049593 0.01681612 -0.01405968)
(-0.0298932 0.01637324 -0.01265493)
(-0.0212654 0.01555237 -0.01158294)
(-0.01426531 0.01436206 -0.01068984)
(-0.008704049 0.01285628 -0.00988599)
(-0.004480336 0.01113317 -0.009125281)
(-0.001521127 0.009328896 -0.008398889)
(0.0002610105 0.007595797 -0.007725761)
(0.00100171 0.006111263 -0.007157185)
(0.0009289434 0.005024795 -0.006746239)
(0.0003335836 0.004449658 -0.006533853)
(-0.0004428266 0.004450245 -0.006542411)
(-0.001029736 0.005027524 -0.00677224)
(-0.001084542 0.006118697 -0.007201613)
(-0.0003135502 0.007612094 -0.007790889)
(0.00151621 0.009358906 -0.008486809)
(0.004544128 0.01118012 -0.009237798)
(0.008862187 0.01292315 -0.01002443)
(0.0145477 0.01445002 -0.01085603)
(0.02170633 0.015661 -0.01177827)
(0.03053161 0.01650028 -0.01288226)
(0.04137747 0.01695823 -0.01432292)
(0.05482841 0.01707655 -0.0163402)
(0.07177276 0.01695553 -0.01935535)
(0.09472187 0.01675692 -0.02425683)
(0.1303737 0.01666011 -0.03087899)
(-0.1263378 0.01991056 -0.03083666)
(-0.09136817 0.02047782 -0.02428423)
(-0.06911456 0.02126366 -0.01948202)
(-0.05291071 0.02198192 -0.01655947)
(-0.04022939 0.02243081 -0.01464376)
(-0.03013704 0.02249976 -0.01332167)
(-0.02200764 0.02215246 -0.0123549)
(-0.01544848 0.0214066 -0.01159369)
(-0.01023031 0.02032478 -0.01094669)
(-0.006213583 0.01900551 -0.01036702)
(-0.00329723 0.01757717 -0.00983678)
(-0.001377593 0.01618372 -0.00936365)
(-0.000316568 0.01497615 -0.00897024)
(7.846503e-05 0.01408791 -0.008687989)
(4.990385e-05 0.01362146 -0.008543395)
(-0.0001204248 0.01362839 -0.008553298)
(-0.0001404541 0.01410918 -0.008717765)
(0.0002733283 0.015014 -0.009020496)
(0.001365975 0.01624064 -0.009435645)
(0.003332936 0.01765586 -0.009932193)
(0.006316965 0.0191081 -0.01048707)
(0.01042562 0.02045221 -0.01109309)
(0.01576427 0.02155845 -0.01176749)
(0.02247658 0.02232648 -0.01255815)
(0.030797 0.02269238 -0.01355639)
(0.04112491 0.02263695 -0.01491473)
(0.05409675 0.02219592 -0.01687397)
(0.07066163 0.02147952 -0.01985629)
(0.09339014 0.02069089 -0.02475296)
(0.1290902 0.02011834 -0.03143402)
(-0.1242715 0.02389216 -0.03159152)
(-0.08926044 0.0251754 -0.02497686)
(-0.06729418 0.02678714 -0.0201923)
(-0.05155992 0.02829114 -0.01730974)
(-0.03944133 0.02944119 -0.01545514)
(-0.02993143 0.03012834 -0.01420813)
(-0.02234851 0.03033207 -0.01333252)
(-0.01625953 0.0300894 -0.01267677)
(-0.01140088 0.02947556 -0.01215258)
(-0.007606249 0.0285947 -0.01170865)
(-0.004754163 0.02756994 -0.01132302)
(-0.002732964 0.02653457 -0.0109914)
(-0.001411628 0.02562093 -0.01072398)
(-0.0006266348 0.02494427 -0.01053593)
(-0.0001795592 0.02459105 -0.01044297)
(0.0001553069 0.02460556 -0.010454)
(0.0006114327 0.02498796 -0.01056905)
(0.001415649 0.02569538 -0.01077915)
(0.00276845 0.02664054 -0.01106988)
(0.004836431 0.02770861 -0.01142574)
(0.007754266 0.02876625 -0.01183716)
(0.01163759 0.02967914 -0.01230776)
(0.01661167 0.03032248 -0.01286029)
(0.02284735 0.03059068 -0.01354551)
(0.03061317 0.03040672 -0.01445347)
(0.04034953 0.02973241 -0.01573645)
(0.05274871 0.02858703 -0.0176353)
(0.06883441 0.02707966 -0.02057698)
(0.09126687 0.02545769 -0.02545647)
(0.1270028 0.0241615 -0.03219943)
(-0.1210492 0.02869948 -0.03264824)
(-0.08608389 0.03106683 -0.02598818)
(-0.06456569 0.03382139 -0.02124944)
(-0.0494726 0.03632795 -0.01842785)
(-0.03806158 0.03831279 -0.01663991)
(-0.02923809 0.0396922 -0.01546575)
(-0.0222689 0.04048443 -0.01466555)
(-0.01668838 0.04075847 -0.01409305)
(-0.01221201 0.04061238 -0.01365865)
(-0.008656997 0.04016006 -0.01331286)
(-0.005893792 0.03952474 -0.01302797)
(-0.003809842 0.03883049 -0.01279489)
(-0.002287383 0.03819501 -0.01261359)
(-0.001189025 0.03771797 -0.01249121)