/*--------------------------------*- C++ -*----------------------------------*\
| =========                 |                                                 |
| \\      /  F ield         | OpenFOAM: The Open Source CFD Toolbox           |
|  \\    /   O peration     | Version:  2506                                  |
|   \\  /    A nd           | Website:  www.openfoam.com                      |
|    \\/     M anipulation  |                                                 |
\*---------------------------------------------------------------------------*/
FoamFile
{
    version     2.0;
    format      ascii;
    arch        "LSB;label=32;scalar=64";
    class       volScalarField;
    location    "450/airRegion";
    object      alphat;
}
// * * * * * * * * * * * * * * * * * * * * * * * * * * * * * * * * * * * * * //

dimensions      [1 -1 -1 0 0 0 0];

internalField   nonuniform List<scalar> 
85779
(
0.1066848
0.1071219
0.1068977
0.1066391
0.1063591
0.105861
0.1045175
0.1002905
0.08777918
0.07951827
0.07756832
0.07795552
0.08054861
0.08525071
0.09117405
0.09634621
0.09798399
0.09308829
0.08396649
0.07640545
0.07407595
0.07840993
0.09260561
0.1025419
0.1051024
0.1056328
0.1052045
0.1022612
0.08605901
0.02337744
0.1068067
0.1073914
0.1069686
0.1063726
0.1056819
0.1045573
0.1020074
0.09571715
0.08585496
0.08128616
0.07941164
0.07956035
0.08179896
0.0860519
0.09149967
0.09630481
0.09784818
0.09323333
0.08437761
0.07703512
0.0748585
0.0784133
0.0871281
0.09847281
0.1025037
0.103379
0.1025153
0.09806145
0.07987963
0.02196022
0.106602
0.1068775
0.1062047
0.1053629
0.1043987
0.1028348
0.09915493
0.09121513
0.08581471
0.0826074
0.08107302
0.0811795
0.08309135
0.0867683
0.09149952
0.09567327
0.09695359
0.09260927
0.08397294
0.07655818
0.07392391
0.07638989
0.08332681
0.09570188
0.100133
0.1011125
0.100299
0.09618922
0.07960885
0.0222003
0.1065501
0.1066065
0.1057349
0.1047131
0.1035478
0.1016343
0.09720774
0.08849669
0.08462755
0.08255114
0.08165367
0.08200107
0.08379354
0.08701481
0.09105216
0.09452869
0.09544013
0.09126126
0.08268865
0.07499139
0.07182534
0.07368194
0.08040532
0.09416135
0.09877311
0.09984848
0.09926291
0.09577097
0.08053931
0.02239737
0.1065694
0.1065281
0.1055392
0.1043932
0.1030402
0.1006508
0.09512696
0.08702178
0.08361875
0.08203144
0.0815577
0.08214213
0.08389775
0.0867594
0.09015472
0.0929064
0.09335944
0.0892528
0.0806966
0.07277165
0.06937621
0.07122778
0.07841964
0.09334309
0.09811883
0.09931098
0.09895095
0.09592523
0.0814859
0.02253568
0.1066013
0.1065227
0.10547
0.1042422
0.1027448
0.0998555
0.09255245
0.08577755
0.08266996
0.08142236
0.08123407
0.08196488
0.08365047
0.08615378
0.0888972
0.09086363
0.09075962
0.08666159
0.07818284
0.07023401
0.06697084
0.06920572
0.07705055
0.09287924
0.09782426
0.09913418
0.09894433
0.09618621
0.08195261
0.02263364
0.1066266
0.1065332
0.1054429
0.1041527
0.1025084
0.09912876
0.09084679
0.08515917
0.08241985
0.08128917
0.08112976
0.0818096
0.08329968
0.08536792
0.08738801
0.08846908
0.08769742
0.08356371
0.07527922
0.06754818
0.06471094
0.067524
0.07602431
0.09257669
0.09768779
0.09910399
0.09903593
0.09643837
0.08228194
0.02270071
0.1066423
0.1065412
0.1054262
0.1040866
0.1023095
0.09849719
0.08971741
0.08507786
0.08263121
0.08145342
0.08117783
0.08169955
0.08291871
0.08448972
0.08570885
0.08579741
0.08425386
0.08005401
0.07209045
0.06479797
0.06259523
0.06606885
0.07517756
0.09234271
0.09761076
0.09911905
0.09913846
0.09664133
0.08251737
0.02274632
0.1066502
0.1065434
0.1054118
0.1040402
0.1021873
0.0981566
0.0888525
0.0845315
0.08236098
0.08130903
0.08105437
0.08149703
0.08248203
0.08355706
0.08393548
0.08295836
0.08057464
0.07629356
0.068751
0.06206026
0.06061725
0.06476826
0.07442757
0.09213374
0.09754931
0.09913749
0.09922161
0.09678993
0.08268034
0.022777
0.106653
0.106541
0.1053974
0.1040038
0.1021066
0.09797492
0.08838057
0.0840638
0.08199832
0.08104374
0.08083795
0.08124307
0.08203295
0.0826408
0.08219092
0.08014934
0.07692559
0.07256127
0.06547627
0.05945293
0.05879914
0.06359399
0.07374313
0.09193381
0.09748705
0.09914533
0.09927916
0.09689192
0.08278928
0.0227972
0.106653
0.1065359
0.1053817
0.1039678
0.1020274
0.09781302
0.08807297
0.08374402
0.08172655
0.08082832
0.08065327
0.08102415
0.0816458
0.08184491
0.08066384
0.07768295
0.07371606
0.06926731
0.06258068
0.05714978
0.05719524
0.06254824
0.07312091
0.09172752
0.097418
0.09914023
0.09931388
0.09695797
0.08285932
0.02281013
0.1066518
0.1065295
0.1053638
0.1039203
0.1018868
0.09740658
0.08780156
0.08356975
0.08161063
0.08074281
0.08056937
0.0808946
0.08137758
0.0812716
0.07956414
0.07591544
0.07140696
0.06687443
0.06043739
0.05536462
0.05588423
0.06164783
0.07255882
0.09151502
0.09734171
0.09912394
0.09933088
0.09699786
0.08290214
0.02281801
0.1066504
0.106523
0.1053433
0.1038463
0.1015205
0.09582892
0.08792217
0.08373617
0.08172687
0.08081392
0.08059407
0.08085869
0.08124559
0.08097944
0.07903016
0.07509251
0.07034629
0.065773
0.05939775
0.05431871
0.05496308
0.0609191
0.07203685
0.09127406
0.09724983
0.0990969
0.09933467
0.09701934
0.08292641
0.02282251
0.1066495
0.1065185
0.1053294
0.1038032
0.1014615
0.09623654
0.08771931
0.08372787
0.08177883
0.08086903
0.08062745
0.08086139
0.08122859
0.08098378
0.0791266
0.07534503
0.07074185
0.06621667
0.05971288
0.05420874
0.05455627
0.06042572
0.07150911
0.09069107
0.09707818
0.09905041
0.0993276
0.09702797
0.08293827
0.02282478
0.1066491
0.1065166
0.1053242
0.1037904
0.101346
0.09538626
0.08770804
0.08371906
0.08179282
0.0808859
0.08063499
0.08087374
0.08131047
0.08128727
0.07988698
0.07674471
0.07268215
0.06827713
0.06143981
0.05513249
0.05480051
0.06035939
0.07110042
0.08747908
0.09657798
0.09896586
0.0993114
0.09702768
0.08294168
0.02282556
0.1066494
0.1065177
0.105327
0.1037982
0.1014529
0.0962198
0.08766702
0.08367727
0.08174332
0.0808389
0.08060079
0.08088551
0.08147456
0.08184429
0.08120579
0.07909779
0.0758881
0.07165989
0.06430951
0.0569096
0.05557042
0.06062819
0.07098488
0.08825043
0.0964497
0.0989144
0.09929726
0.09702224
0.08293879
0.02282515
0.1066504
0.1065214
0.1053378
0.1038338
0.1014935
0.09574806
0.08778505
0.08363651
0.0816722
0.08076962
0.08055268
0.08090748
0.08169494
0.08253662
0.08278254
0.08186908
0.07966233
0.07566351
0.06769329
0.0590838
0.05653369
0.06095777
0.07118516
0.0895411
0.09665557
0.09893898
0.09929538
0.09701378
0.08292986
0.02282355
0.1066521
0.106527
0.1053536
0.1038923
0.1018224
0.09731796
0.08775582
0.0836063
0.08164393
0.08073047
0.08053008
0.08096247
0.0819602
0.08327398
0.08437428
0.0846077
0.08339121
0.07965526
0.07108406
0.06134405
0.05760731
0.06136928
0.07163588
0.09073904
0.09702258
0.09901466
0.09930094
0.09700001
0.08291311
0.02282047
0.1066539
0.106534
0.1053722
0.1039419
0.1019673
0.09770264
0.08791259
0.08362269
0.08162381
0.08071716
0.08055092
0.08106925
0.08227201
0.08401982
0.0858772
0.08711341
0.08677371
0.08328094
0.07420617
0.06360107
0.05895812
0.06218906
0.07230049
0.09124311
0.09720628
0.09905941
0.09929661
0.09697467
0.08288475
0.02281526
0.1066554
0.1065407
0.1053894
0.1039815
0.1020574
0.09787902
0.08817305
0.08383683
0.08178141
0.08083973
0.08067355
0.08125467
0.08263927
0.08477237
0.08728169
0.08936104
0.0897477
0.08642965
0.07694804
0.06575351
0.06045666
0.06318224
0.07294981
0.09151349
0.09730567
0.09907981
0.09927789
0.09693172
0.08283891
0.02280687
0.1066556
0.1065459
0.1054049
0.1040167
0.1021317
0.09802681
0.08851253
0.08418966
0.08206458
0.08105436
0.08086244
0.08149209
0.08304567
0.0855303
0.0886091
0.09139447
0.09235852
0.08911931
0.07930332
0.0677535
0.0620133
0.06426606
0.07361326
0.09174665
0.09738255
0.09908552
0.09924165
0.09686368
0.08276714
0.02279369
0.1066526
0.1065482
0.1054196
0.1040547
0.1022186
0.09823107
0.08904841
0.08466444
0.0823688
0.08124242
0.08102144
0.0817156
0.08345273
0.08628162
0.08987821
0.09326451
0.09467454
0.09141233
0.08132148
0.06961157
0.06360332
0.06542836
0.07432153
0.091987
0.09745492
0.09907944
0.0991838
0.096761
0.08265785
0.0227735
0.1066445
0.1065456
0.105434
0.1041029
0.1023483
0.09859622
0.08993967
0.08513285
0.08249532
0.08125292
0.08105814
0.08187192
0.08382974
0.08701277
0.09109638
0.09500363
0.09674798
0.09337047
0.08307036
0.07137328
0.0652458
0.06668864
0.07509996
0.09223099
0.0975279
0.09906465
0.09910188
0.09661306
0.08249585
0.02274306
0.1066284
0.1065369
0.1054497
0.1041675
0.102545
0.0992224
0.09104761
0.08523586
0.08233239
0.08114461
0.08106143
0.08201856
0.08419622
0.08772075
0.0922579
0.09661786
0.09860094
0.09503437
0.08460941
0.07309325
0.06698652
0.06809387
0.07598537
0.09249253
0.09761747
0.09905506
0.09900195
0.09641188
0.08226242
0.02269791
0.1066028
0.1065256
0.1054749
0.1042521
0.1027672
0.09990889
0.09268815
0.08591745
0.08272747
0.08142879
0.08128901
0.08225894
0.08456855
0.08838074
0.09332844
0.09808133
0.1002225
0.09641444
0.08596694
0.07480671
0.06888127
0.0697263
0.07705499
0.09282241
0.09776785
0.09909213
0.09891396
0.09616215
0.08193521
0.02263144
0.1065705
0.1065302
0.1055425
0.1043985
0.1030488
0.1006623
0.09516055
0.08715133
0.08370916
0.08208717
0.08167187
0.08249211
0.08483539
0.08889008
0.09422592
0.09933486
0.1015723
0.09748569
0.08711509
0.07648804
0.07095929
0.07170379
0.07846669
0.09331218
0.09807668
0.09927657
0.09892477
0.09590338
0.08146516
0.02253417
0.1065508
0.1066079
0.105737
0.1047156
0.1035477
0.1016238
0.09722227
0.08868549
0.08466686
0.08251772
0.08172281
0.08235211
0.08473498
0.08906998
0.09483208
0.100299
0.1025906
0.09818706
0.08794475
0.07798759
0.07313116
0.07411902
0.08048937
0.09415349
0.09874469
0.09982204
0.09924145
0.09575234
0.08052099
0.02239645
0.1066024
0.1068785
0.1062063
0.1053659
0.104406
0.1028553
0.09921684
0.09123388
0.08556904
0.08229334
0.08097914
0.0814802
0.08402862
0.0887724
0.09505214
0.1009051
0.1032192
0.09843881
0.08826775
0.07896935
0.0750069
0.07679612
0.08343869
0.09571234
0.1001171
0.1010942
0.1002829
0.09617477
0.0795957
0.02219983
0.1068069
0.1073919
0.1069695
0.1063747
0.1056878
0.1045655
0.1019611
0.09542693
0.08604636
0.08115603
0.07929785
0.07984749
0.08275414
0.08803883
0.09489054
0.1011207
0.1034168
0.09819513
0.08791763
0.07899271
0.07577402
0.07880159
0.08725773
0.09849461
0.1024982
0.1033692
0.1025056
0.09805214
0.07987115
0.02196004
0.1066848
0.107122
0.1068979
0.1066397
0.1063617
0.1058688
0.1045209
0.1000854
0.08655661
0.07947151
0.07723488
0.07811765
0.08148686
0.08722819
0.09446595
0.1009011
0.1031092
0.09750462
0.08702307
0.07806717
0.07487987
0.07878279
0.09271148
0.1025578
0.105103
0.1056306
0.1052019
0.1022583
0.08605604
0.02337743
0.1068067
0.1073914
0.1069685
0.1063725
0.1056813
0.1045464
0.1019193
0.0953723
0.08603337
0.08132381
0.07940999
0.07957533
0.08183489
0.08611566
0.09161172
0.09648175
0.0980761
0.09346174
0.0845564
0.07714434
0.07491092
0.07843185
0.08713154
0.09847409
0.1025041
0.1033791
0.1025153
0.09806131
0.07987938
0.0219602
0.1061581
0.1077707
0.1081794
0.1075362
0.1062231
0.1040625
0.1002593
0.09418154
0.0878767
0.08364712
0.08147249
0.08125276
0.08308287
0.08688436
0.0918921
0.09638349
0.09787097
0.09353806
0.08491909
0.07767297
0.07549838
0.07867737
0.08570539
0.09366167
0.09809965
0.09896626
0.09637255
0.08744683
0.06364474
0.01661929
0.1052799
0.1062969
0.1068605
0.1063359
0.1048913
0.1024499
0.09843525
0.09352258
0.08882939
0.08533523
0.08331343
0.08293056
0.08435919
0.08754756
0.09182046
0.09566289
0.09686892
0.09281878
0.08451403
0.07730558
0.07480618
0.07718134
0.08282645
0.08944185
0.09344207
0.09403045
0.09088081
0.08138203
0.05857501
0.01594507
0.1049182
0.1052542
0.105376
0.1045811
0.1029161
0.100307
0.09626157
0.09195594
0.08831594
0.08562654
0.08405494
0.08379624
0.08503597
0.08773171
0.09128816
0.09440864
0.09522062
0.09134825
0.08321952
0.0758424
0.07284688
0.07449847
0.0793816
0.08560595
0.08950543
0.09022822
0.08752748
0.07912802
0.05824556
0.01636635
0.1048304
0.1048184
0.1045524
0.1034227
0.1014718
0.09861382
0.09464684
0.09054155
0.08734085
0.08514386
0.08396556
0.08390573
0.08507915
0.0873946
0.09028629
0.09264822
0.09296732
0.08916943
0.08114528
0.07358639
0.07026609
0.07163643
0.07645822
0.08298056
0.08713998
0.08827535
0.08631126
0.07912098
0.0595547
0.0167928
0.1048338
0.1046843
0.1041942
0.1028215
0.1006198
0.09744773
0.09328732
0.08925252
0.08631391
0.08443784
0.0835339
0.08361964
0.0847257
0.08667827
0.08889318
0.09042343
0.09014083
0.08634571
0.07846194
0.07088018
0.06757002
0.06911189
0.07431714
0.0814232
0.08599631
0.08759231
0.08626436
0.07991536
0.06097089
0.01709423
0.1048548
0.1046551
0.1040453
0.1025138
0.1001158
0.09663923
0.09236202
0.0884998
0.08573168
0.08399256
0.0831807
0.08327432
0.08422447
0.08574994
0.0872063
0.08778456
0.08678006
0.08294606
0.07531197
0.06794501
0.06498161
0.06700507
0.07278277
0.08051855
0.08550913
0.08750418
0.08663858
0.08081434
0.06214008
0.01729678
0.1048708
0.10465
0.1039726
0.1023374
0.09979256
0.09605164
0.09174048
0.08810669
0.08546106
0.08376233
0.08294285
0.08295994
0.08368514
0.08471033
0.08530112
0.08478823
0.08294993
0.07906357
0.07181694
0.06490686
0.06255882
0.06523344
0.07162484
0.07994293
0.08529864
0.08761148
0.08706771
0.08156793
0.06300996
0.01743165
0.1048784
0.1046442
0.1039258
0.1022264
0.09958767
0.0956613
0.09117592
0.08760937
0.08507829
0.08346182
0.08267076
0.08262923
0.08312616
0.08361397
0.08325176
0.08153451
0.07879253
0.07486908
0.06813158
0.06186972
0.06031154
0.06370324
0.07068135
0.07950191
0.0851712
0.08773529
0.08741847
0.08212603
0.06362153
0.01752087
0.1048793
0.1046329
0.1038864
0.1021456
0.09945049
0.09540921
0.09079235
0.08720176
0.08471519
0.08315657
0.08239656
0.08230949
0.08258974
0.08253675
0.0811922
0.0782426
0.07460771
0.07067835
0.06450329
0.05897452
0.05826212
0.06235453
0.06986232
0.07911327
0.08505095
0.08781526
0.08766371
0.08251038
0.0640359
0.01757894
0.1048762
0.104617
0.1038471
0.1020731
0.09933621
0.09521291
0.09052488
0.08691533
0.0844503
0.08292572
0.0821828
0.08205082
0.0821357
0.08159412
0.07936044
0.0753134
0.07090255
0.06697439
0.06129527
0.05642236
0.05646399
0.06116175
0.06911594
0.07872894
0.08491783
0.08784298
0.0878156
0.08276
0.06430729
0.01761575
0.1048713
0.1045985
0.1038053
0.1019956
0.09921024
0.0950199
0.09033998
0.08675654
0.08431638
0.08280829
0.08206298
0.08188285
0.08181305
0.08091193
0.07804465
0.07322846
0.06825441
0.06429448
0.05893227
0.05445676
0.05500309
0.06013848
0.06843517
0.07834411
0.08476927
0.0878268
0.08789611
0.08291182
0.06447771
0.0176381
0.1048661
0.1045801
0.1037629
0.1019128
0.09907344
0.0949771
0.09036977
0.08679138
0.08433676
0.08280702
0.08203158
0.08180174
0.08163781
0.08056093
0.07741447
0.07227478
0.06705429
0.06306627
0.05780107
0.05332351
0.0539892
0.05932857
0.0678352
0.07796489
0.08459973
0.08777556
0.08792539
0.08299518
0.0645779
0.01765083
0.1048624
0.104567
0.1037323
0.1018536
0.09899225
0.09485291
0.09030949
0.08678144
0.08434715
0.0828148
0.08202109
0.08176836
0.08159746
0.08056293
0.07753805
0.0725839
0.06751949
0.06355977
0.05816972
0.0532335
0.05355233
0.05881118
0.06734473
0.0775524
0.08438715
0.08769257
0.08791851
0.08303141
0.06462925
0.0176572
0.1048609
0.1045614
0.1037197
0.1018292
0.09893694
0.09480346
0.09027395
0.08676979
0.08434608
0.08280862
0.08200494
0.08176309
0.08168571
0.08093652
0.07848318
0.07428013
0.06978346
0.06586751
0.06009569
0.05428219
0.05380417
0.05871474
0.06709662
0.07712625
0.08411845
0.087587
0.08788911
0.08303561
0.06464582
0.01765929
0.1048619
0.1045645
0.1037261
0.1018416
0.09897258
0.0948206
0.09026835
0.08674401
0.08431249
0.08277317
0.08197569
0.0817816
0.08188819
0.08163361
0.0801422
0.07717488
0.07357311
0.06970782
0.06331286
0.05630204
0.05465542
0.05898633
0.06711355
0.07697582
0.08396229
0.08751336
0.08785771
0.08301921
0.06463596
0.0176581
0.1048653
0.1045753
0.1037498
0.1018863
0.09902667
0.09489416
0.09028243
0.08672641
0.08428125
0.08273717
0.08195315
0.08182902
0.08216374
0.08248341
0.08208296
0.08053281
0.0780035
0.07426294
0.06713495
0.05884659
0.05584891
0.05942487
0.06728291
0.07713165
0.08403911
0.08752433
0.08783981
0.08298683
0.0646015
0.01765363
0.1048704
0.1045916
0.1037847
0.1019547
0.09915418
0.09498573
0.09034055
0.08676402
0.08429312
0.08273504
0.08196509
0.08191865
0.08248497
0.08335235
0.08395921
0.08373
0.08226957
0.07874926
0.07094691
0.06149916
0.05722985
0.06001776
0.06759944
0.07749456
0.08428557
0.08759749
0.08782527
0.08293089
0.06453579
0.01764498
0.1048764
0.1046115
0.1038273
0.1020304
0.09926636
0.09511148
0.09041368
0.08680487
0.08432548
0.08277298
0.08202945
0.08206468
0.08284725
0.08419537
0.08565585
0.08654621
0.08603335
0.08275877
0.07441143
0.06407
0.0588134
0.06093519
0.06821449
0.0779499
0.0845066
0.08765289
0.0877838
0.08283293
0.06442402
0.01763029
0.1048819
0.1046309
0.1038691
0.1021045
0.0993791
0.09528564
0.09061331
0.08699377
0.08449158
0.08292179
0.08218542
0.08228653
0.08325904
0.08501921
0.08718777
0.08899483
0.08926639
0.08619267
0.07741412
0.06645529
0.06050189
0.06204574
0.06893967
0.07837232
0.08467447
0.08766742
0.08769362
0.08267006
0.06424466
0.01760649
0.1048852
0.1046472
0.1039088
0.1021775
0.0994956
0.09548942
0.09090314
0.08730139
0.08476861
0.08316198
0.08241632
0.08257148
0.0837157
0.08583819
0.08860479
0.09116232
0.09205772
0.08909911
0.07996809
0.06862947
0.06222845
0.06327508
0.06973523
0.07879264
0.08481061
0.08763548
0.08753481
0.08241318
0.0639675
0.0175689
0.1048842
0.1046584
0.1039489
0.1022614
0.09964168
0.09576278
0.09131163
0.08770476
0.08509924
0.08343085
0.0826704
0.08288333
0.08419811
0.08665695
0.08994793
0.0931305
0.09450903
0.09156676
0.08214313
0.07062611
0.0639843
0.06461076
0.07061107
0.07924006
0.08493403
0.08755451
0.08728705
0.08202596
0.06355087
0.01751075
0.1048761
0.1046635
0.1039957
0.1023748
0.09985338
0.09616666
0.09186626
0.08814335
0.08540026
0.08366263
0.08290448
0.0831943
0.08468892
0.08747184
0.09123738
0.09495012
0.09669281
0.09367377
0.0840204
0.07250785
0.06580394
0.06608326
0.07159985
0.07973708
0.08507532
0.08743701
0.08693915
0.08146944
0.0629405
0.01742214
0.1048594
0.1046669
0.1040658
0.1025478
0.1001724
0.096746
0.09247455
0.08854123
0.08569508
0.08392745
0.08318004
0.08353539
0.08519157
0.08827373
0.09246943
0.09663508
0.09864103
0.09546747
0.08566299
0.07433551
0.0677457
0.06776722
0.07278792
0.08036216
0.08531299
0.08734373
0.08651777
0.08072114
0.06207471
0.01728842
0.1048376
0.1046938
0.1042104
0.1028472
0.1006618
0.0975251
0.09339323
0.0893452
0.0863626
0.0844623
0.08361183
0.08393593
0.08568473
0.08902086
0.09360496
0.09816112
0.1003459
0.09695736
0.08709238
0.07613382
0.06986293
0.06977939
0.07435201
0.08131709
0.08583328
0.08745054
0.08615444
0.07982974
0.06091135
0.01708736
0.1048332
0.1048257
0.1045644
0.1034405
0.1014983
0.09865935
0.0947228
0.09063678
0.08741285
0.08520383
0.08408632
0.08425982
0.08603418
0.08959875
0.0945578
0.09946907
0.1017668
0.09811322
0.08826498
0.07784227
0.07213508
0.072213
0.07651909
0.08291522
0.0870102
0.0881542
0.08621377
0.07904357
0.05950005
0.01678754
0.1049202
0.1052596
0.105385
0.1045941
0.1029348
0.1003427
0.09636175
0.09205496
0.08834998
0.08564639
0.08416084
0.08415556
0.08598088
0.08982871
0.09521031
0.1004807
0.1028448
0.09887005
0.08905681
0.07926114
0.07435781
0.07499516
0.07946307
0.08557105
0.08940743
0.09012943
0.08744444
0.07906056
0.05819841
0.0163626
0.1052813
0.106301
0.1068675
0.1063471
0.1049104
0.1024834
0.09849167
0.0934942
0.08871515
0.08523207
0.08335242
0.0832715
0.08529498
0.08956825
0.09547095
0.1011299
0.1035241
0.09915285
0.08929011
0.08004465
0.07603152
0.07761723
0.08292662
0.08943098
0.09337595
0.09395816
0.09081717
0.08132842
0.05853724
0.01594257
0.1061589
0.1077731
0.1081837
0.1075437
0.1062374
0.1040883
0.1002888
0.09422964
0.08792102
0.08360714
0.08151636
0.08160303
0.08403146
0.08886534
0.09534548
0.1013845
0.1037665
0.09893196
0.08885956
0.07988474
0.07650981
0.07907586
0.08582637
0.09367486
0.09806533
0.09892516
0.09633512
0.08741362
0.06361972
0.01661791
0.1068069
0.1073919
0.1069696
0.1063746
0.1056866
0.1045571
0.1019145
0.09528025
0.08605847
0.08127719
0.07940378
0.07991103
0.0827939
0.08807793
0.09494333
0.1011898
0.1034929
0.09825859
0.08796032
0.07901469
0.07578411
0.07880576
0.08725907
0.09849573
0.1024985
0.1033692
0.1025056
0.09805199
0.07987095
0.02196002
0.106602
0.1068776
0.1062047
0.1053625
0.1043967
0.1028283
0.09916963
0.09113388
0.08542561
0.0822889
0.08094993
0.08118544
0.08316954
0.08692704
0.09179461
0.09615099
0.09757866
0.09324765
0.08448116
0.07687169
0.07407192
0.07643997
0.08333352
0.09569989
0.1001307
0.101111
0.1002981
0.09618864
0.07960841
0.02220031
0.1052799
0.1062971
0.1068607
0.106336
0.1048921
0.1024547
0.09845576
0.09343763
0.08868059
0.08523514
0.08328443
0.08294741
0.08440796
0.0876449
0.0920057
0.09596661
0.09726968
0.09323311
0.08484959
0.07751671
0.07490768
0.07721814
0.08283654
0.08944724
0.09344187
0.09402869
0.09087913
0.08138075
0.05857428
0.01594504
0.1039421
0.1039102
0.1049422
0.1053437
0.1045945
0.1026127
0.0992208
0.09505407
0.09094466
0.08761151
0.08544894
0.08472878
0.08566216
0.08822044
0.09180788
0.0950819
0.09606893
0.0923373
0.08444606
0.07740761
0.0747654
0.07660056
0.08106811
0.08582779
0.08845863
0.08793301
0.08311081
0.07149977
0.04866751
0.01322037
0.1033553
0.1022628
0.1026573
0.1029733
0.102444
0.1008197
0.09801092
0.09460769
0.09122152
0.08836235
0.08640603
0.08564622
0.0862913
0.08830149
0.0911332
0.09363941
0.09418878
0.09065218
0.08312066
0.07615522
0.07320502
0.07436606
0.07784481
0.08152294
0.08341011
0.08246662
0.07747238
0.06624707
0.0451096
0.0127434
0.1031723
0.1015462
0.1013204
0.1011678
0.1003898
0.09871783
0.0961592
0.09318245
0.09031172
0.0879249
0.08630731
0.08569351
0.08623433
0.08783608
0.08996652
0.09165814
0.09166013
0.08820147
0.08091845
0.07391235
0.07063696
0.07130688
0.07427009
0.0775988
0.07942902
0.07879811
0.07455651
0.06462214
0.04505252
0.01306045
0.1031372
0.1013061
0.1007289
0.1001974
0.09910127
0.09719151
0.09456763
0.09172099
0.08912221
0.08705355
0.0857112
0.085249
0.08572811
0.08695782
0.08836864
0.08915367
0.0884871
0.08502579
0.07798667
0.07101432
0.06765168
0.06825084
0.07126533
0.07485087
0.07708663
0.07710975
0.07382124
0.0650765
0.04638285
0.0134454
0.1031422
0.1012423
0.1004928
0.09972906
0.09839149
0.09624174
0.09350009
0.09067954
0.08819538
0.08628077
0.08507879
0.08467648
0.08503494
0.08583198
0.08641725
0.08614281
0.08467663
0.0811794
0.07447825
0.06774631
0.06464181
0.06558212
0.06904087
0.07318608
0.07598462
0.07667735
0.07418364
0.06625723
0.04791164
0.01373623
0.1031511
0.1012266
0.1003904
0.09949117
0.09799338
0.09565411
0.09281025
0.08999455
0.08755967
0.08571015
0.08455887
0.08413811
0.08430241
0.08456764
0.08416762
0.08264415
0.08026202
0.07674881
0.07053786
0.0643006
0.06178129
0.06334598
0.06742872
0.07220269
0.07554017
0.07678533
0.07486539
0.06744942
0.04919165
0.01393494
0.1031551
0.1012164
0.1003307
0.09935114
0.09775254
0.0952785
0.09231829
0.08946891
0.08705604
0.0852489
0.08412511
0.08365879
0.08358559
0.08322814
0.08167568
0.07872784
0.07537099
0.07191673
0.06635128
0.06083059
0.05913025
0.06145619
0.06619091
0.07153892
0.07535609
0.07702403
0.07550213
0.06840299
0.05013934
0.01406653
0.1031539
0.1012015
0.1002819
0.09925105
0.09758881
0.09502545
0.09197717
0.08908257
0.08666919
0.08488532
0.08377605
0.08325422
0.08292544
0.08189352
0.07908293
0.07463726
0.07035233
0.06705536
0.06221556
0.05751996
0.05673048
0.05982877
0.06516669
0.07101141
0.07523731
0.07722207
0.07597864
0.06908509
0.05079742
0.01415183
0.1031493
0.1011821
0.1002346
0.09916518
0.0974511
0.09483
0.09172931
0.08880608
0.08639126
0.08462166
0.08351824
0.0829401
0.08237131
0.08070742
0.07672199
0.07093619
0.06588406
0.0627655
0.05856785
0.05461446
0.05464671
0.05842004
0.06427076
0.07053361
0.07510807
0.07733275
0.07628971
0.06953786
0.05123405
0.01420561
0.1031434
0.1011606
0.1001872
0.0990833
0.09732531
0.09466822
0.0915511
0.08862486
0.08621611
0.08445504
0.08334894
0.08272086
0.08196992
0.07985037
0.07504548
0.06835083
0.06274166
0.05969233
0.05590247
0.05239705
0.05297286
0.05723318
0.06347848
0.07007936
0.07495034
0.07736061
0.07646668
0.06981783
0.05151049
0.01423809
0.1031376
0.1011405
0.1001431
0.09900754
0.09721385
0.09456452
0.09146354
0.08854475
0.0861371
0.08437128
0.08325049
0.08258362
0.08173628
0.07941047
0.07426367
0.0672044
0.06135111
0.05829572
0.054643
0.0511392
0.05182591
0.05631289
0.06280837
0.06965742
0.07476753
0.07732482
0.07654596
0.06997482
0.05167414
0.01425642
0.1031334
0.1011261
0.1001116
0.09895254
0.09713318
0.09447555
0.09138865
0.08848604
0.08608703
0.08431824
0.08318439
0.08250343
0.08166468
0.07940913
0.07442322
0.06758867
0.06191278
0.0588515
0.05507188
0.05106882
0.05134065
0.05573933
0.06230967
0.06929063
0.07457119
0.07724625
0.07655876
0.07004686
0.05175901
0.01426546
0.1031317
0.1011201
0.1000984
0.09892981
0.09709817
0.09443585
0.09135423
0.088458
0.08605842
0.08428061
0.08313603
0.08247292
0.08176353
0.07989527
0.07566336
0.06973074
0.06463642
0.06148462
0.05725255
0.05228937
0.05162233
0.05560522
0.06206885
0.06904714
0.07439454
0.07715205
0.07653175
0.07006114
0.05178771
0.01426831
0.1031329
0.1011236
0.1001052
0.09894066
0.09711435
0.09444971
0.09135836
0.08845253
0.08604395
0.08425542
0.08310788
0.08249622
0.08202448
0.08082895
0.07791452
0.07352288
0.06931901
0.06596758
0.0609194
0.05464278
0.05262165
0.05589292
0.06209392
0.06897418
0.07429998
0.07708339
0.07649022
0.07003579
0.05177336
0.01426649
0.1031366
0.1011356
0.1001303
0.0989829
0.09717418
0.09451029
0.09140527
0.08848407
0.08605958
0.08425788
0.08311372
0.08257337
0.08238138
0.08193963
0.08048106
0.07785954
0.07477684
0.07132993
0.06533998
0.05767802
0.05413446
0.05649134
0.06231785
0.06906536
0.07433127
0.07707029
0.07644748
0.06997631
0.05171833
0.01426007
0.1031422
0.1011542
0.1001687
0.09904728
0.09727179
0.09461833
0.09150516
0.08856628
0.08612163
0.08430603
0.08316995
0.08270691
0.08278224
0.08301504
0.08281867
0.0817856
0.07985833
0.0765323
0.06972596
0.06084155
0.05591968
0.05734114
0.0627311
0.06930339
0.07446489
0.07709521
0.07638974
0.06986994
0.05161201
0.0142477
0.1031491
0.101177
0.1002161
0.09912571
0.09738515
0.09474189
0.09162341
0.08867827
0.08622776
0.08440992
0.08329007
0.08290425
0.08321497
0.08400333
0.08481262
0.08507297
0.08418335
0.0810902
0.07366455
0.06383779
0.05784542
0.05845194
0.06338595
0.06969228
0.0746327
0.07710492
0.07628111
0.06968718
0.05143113
0.01422651
0.1031557
0.1011999
0.1002653
0.09920904
0.09751182
0.0949072
0.09181473
0.0888797
0.08642649
0.08460352
0.08349554
0.08317782
0.08368991
0.08493063
0.08653233
0.0878165
0.08779055
0.08493069
0.07703962
0.0665518
0.05981515
0.05974725
0.06419602
0.0701429
0.07478451
0.07706003
0.07608337
0.06938807
0.05114146
0.0141919
0.1031605
0.10122
0.1003137
0.09929678
0.09764903
0.0951079
0.09207469
0.08917065
0.08671979
0.0848883
0.08378661
0.08352824
0.08421592
0.0858356
0.08807784
0.09017737
0.09084164
0.08814958
0.07988988
0.06898343
0.06178879
0.06117924
0.06512376
0.07063639
0.0749103
0.07693792
0.07575874
0.06892282
0.05069612
0.01413693
0.1031616
0.1012348
0.100363
0.09939909
0.09781788
0.09537105
0.09242633
0.08955938
0.08710343
0.08525456
0.08415308
0.08394786
0.0847943
0.08674471
0.08952479
0.09228701
0.09348984
0.09087412
0.08231076
0.07119521
0.06378558
0.06275586
0.0661874
0.07119972
0.07503265
0.07673665
0.07527702
0.06823557
0.05003435
0.01405142
0.1031572
0.101244
0.1004218
0.09953936
0.09806082
0.09575058
0.09291258
0.090065
0.08758376
0.08570446
0.08459447
0.0844332
0.08542212
0.08766738
0.09091281
0.09422422
0.09583793
0.09320564
0.08439884
0.07326887
0.0658634
0.06453774
0.06746311
0.07191481
0.07523138
0.0765054
0.07464396
0.067284
0.04908791
0.01392059
0.1031476
0.1012577
0.1005209
0.09977262
0.09845286
0.09633141
0.09359503
0.09075064
0.08823191
0.08629935
0.08514777
0.08499422
0.08609037
0.08859115
0.09224384
0.09601579
0.09793268
0.09520074
0.08621888
0.07526556
0.06808658
0.06662855
0.06910637
0.07296878
0.07570312
0.07641485
0.07397324
0.06609944
0.04781319
0.01372345
0.1031416
0.1013189
0.1007522
0.100233
0.09915091
0.09726433
0.09465636
0.09180686
0.0891904
0.08711359
0.08582519
0.08559854
0.08674369
0.08945899
0.09347585
0.09764176
0.09977174
0.09686799
0.08777952
0.07718238
0.07047257
0.06913266
0.07134506
0.07469457
0.07683904
0.07687082
0.07362623
0.06492942
0.04629193
0.01343462
0.1031758
0.1015566
0.1013393
0.1011963
0.1004285
0.09877367
0.09623349
0.09326465
0.09038715
0.08800223
0.08644603
0.08606246
0.08721913
0.09014275
0.09451916
0.09904471
0.1013165
0.0981714
0.0890142
0.07890133
0.07289775
0.07202409
0.07434639
0.0774821
0.07921677
0.07858655
0.07437978
0.0644871
0.04496925
0.01305177
0.1033581
0.1022713
0.1026728
0.1029966
0.1024758
0.1008669
0.09808111
0.09467803
0.09127904
0.08842559
0.08654071
0.08601493
0.08724617
0.09045931
0.09525668
0.1001496
0.1025106
0.09904293
0.08978085
0.0801587
0.07499728
0.0749404
0.07791226
0.0814328
0.08323749
0.08228983
0.07732074
0.06612849
0.04503588
0.01273659
0.1039442
0.1039169
0.1049544
0.1053626
0.1046216
0.1026521
0.09926446
0.09509492
0.09097692
0.08765077
0.08556724
0.08508911
0.0865935
0.09026846
0.09560063
0.1008951
0.1033039
0.09941521
0.08991599
0.08060986
0.07618778
0.07707089
0.08113886
0.0857693
0.08833618
0.08780393
0.08299745
0.07140797
0.04860821
0.01321548
0.1052814
0.1063013
0.1068682
0.1063488
0.1049136
0.1024854
0.09847623
0.09355684
0.08886219
0.0853742
0.08344644
0.08332672
0.08533795
0.0896237
0.09555492
0.1012448
0.1036556
0.09927015
0.08937526
0.08009178
0.07605191
0.07762427
0.08292856
0.08943211
0.09337483
0.0939566
0.09081566
0.08132704
0.05853622
0.01594246
0.1066024
0.1068786
0.1062067
0.1053674
0.1044111
0.1028636
0.09917518
0.09122258
0.08588852
0.08265908
0.08122101
0.08161153
0.08411421
0.08886762
0.09518942
0.1010899
0.1034274
0.09861936
0.08839397
0.07903577
0.07503464
0.07680525
0.08343967
0.09571171
0.1001161
0.1010933
0.1002822
0.09617409
0.07959508
0.0221998
0.1065502
0.1066067
0.1057349
0.1047107
0.1035284
0.1015491
0.09706405
0.08875527
0.08470112
0.08253792
0.081669
0.08206463
0.08392535
0.08729058
0.09159731
0.0954376