/*--------------------------------*- C++ -*----------------------------------*\
| =========                 |                                                 |
| \\      /  F ield         | OpenFOAM: The Open Source CFD Toolbox           |
|  \\    /   O peration     | Version:  2506                                  |
|   \\  /    A nd           | Website:  www.openfoam.com                      |
|    \\/     M anipulation  |                                                 |
\*---------------------------------------------------------------------------*/
FoamFile
{
    version     2.0;
    format      ascii;
    arch        "LSB;label=32;scalar=64";
    class       volScalarField;
    location    "450/airRegion";
    object      epsilon;
}
// * * * * * * * * * * * * * * * * * * * * * * * * * * * * * * * * * * * * * //

dimensions      [0 2 -3 0 0 0 0];

internalField   nonuniform List<scalar> 
85779
(
0.008338013
0.007761731
0.00762291
0.007579283
0.007561089
0.007539514
0.007437121
0.006913059
0.004149655
0.002034817
0.001288862
0.0009147217
0.0007005411
0.0005764953
0.0005094607
0.000479622
0.0004802168
0.0005256014
0.0006402438
0.0008756141
0.001358691
0.002439277
0.00527288
0.007231708
0.007535159
0.007615006
0.007683989
0.007872002
0.008980021
0.02346826
0.0079288
0.00698711
0.006691814
0.006577603
0.00651588
0.006438322
0.006194619
0.005267668
0.002799425
0.001723184
0.001179928
0.0008672178
0.0006782428
0.0005663529
0.000505642
0.0004787073
0.0004785479
0.0005163041
0.0006139691
0.0008127554
0.001196856
0.001936392
0.003375857
0.005962415
0.006444833
0.006604939
0.006731129
0.006981687
0.008071983
0.01945356
0.007936111
0.006912271
0.006554226
0.006399954
0.006305255
0.006172108
0.005723087
0.003412677
0.002167958
0.001481461
0.001073233
0.0008170572
0.0006542706
0.0005542744
0.0004978046
0.0004706077
0.0004666073
0.0004955728
0.000578932
0.000751341
0.001079866
0.001698761
0.002929329
0.005689153
0.006224377
0.006425014
0.006586388
0.006866386
0.00796015
0.02009861
0.007986529
0.006955974
0.006578402
0.006404986
0.006286257
0.006100652
0.005496925
0.003018542
0.001931539
0.001352776
0.001004044
0.0007806461
0.0006355351
0.0005440501
0.0004902106
0.0004616799
0.000453023
0.0004731713
0.0005446572
0.0007008391
0.001005857
0.001593123
0.002805207
0.005647187
0.006214074
0.006443905
0.006629887
0.006923328
0.008001049
0.0206386
0.008025858
0.00700283
0.006620479
0.006437515
0.006296065
0.006019395
0.004919019
0.002755333
0.001797536
0.001277014
0.0009601166
0.0007556162
0.0006214486
0.0005353335
0.0004827184
0.0004522056
0.0004385774
0.0004501152
0.0005113172
0.0006569284
0.0009519255
0.001532501
0.002753819
0.0056489
0.006244084
0.006498369
0.006702355
0.007001183
0.008058228
0.02102333
0.008051054
0.007035313
0.006651906
0.006463117
0.006306211
0.005961504
0.004211497
0.00257471
0.001709892
0.001225159
0.0009284809
0.0007364801
0.0006097
0.0005271064
0.0004748786
0.0004420623
0.0004233608
0.0004264921
0.0004782619
0.0006159076
0.0009053668
0.001484249
0.002714904
0.005649561
0.006271536
0.006547245
0.006765519
0.007068558
0.008126811
0.02129865
0.008066107
0.007055246
0.006671404
0.006477717
0.006303241
0.005883499
0.003722108
0.002365618
0.001611606
0.001173176
0.0008990685
0.0007190597
0.0005986407
0.0005188086
0.0004666071
0.0004313843
0.0004075967
0.0004024831
0.0004453589
0.0005763331
0.0008614582
0.001438425
0.002674594
0.005640245
0.006287614
0.006582537
0.006812751
0.007118972
0.008177723
0.02148844
0.008074616
0.007066484
0.006681963
0.006483693
0.006291889
0.005801642
0.003343542
0.002163741
0.001515856
0.001124666
0.0008724046
0.0007032144
0.0005882035
0.000510579
0.0004582042
0.0004205471
0.0003916537
0.0003784142
0.0004129688
0.0005382432
0.0008193343
0.001393198
0.002631269
0.005621135
0.00629243
0.006604877
0.006845519
0.007154585
0.008213156
0.02161814
0.008079037
0.007072029
0.00668635
0.00648416
0.006282202
0.005762038
0.003237944
0.002084975
0.001466804
0.001094364
0.0008531802
0.0006904565
0.000579011
0.0005028705
0.0004501337
0.0004100218
0.0003759712
0.0003547397
0.0003817746
0.0005023625
0.0007796059
0.001349292
0.002586334
0.005594485
0.006288269
0.006616833
0.006866834
0.007178762
0.008237206
0.02170565
0.008081085
0.007074249
0.006687169
0.006481469
0.006272027
0.005734455
0.00319975
0.002051074
0.001440975
0.001075518
0.0008395445
0.000680418
0.0005711921
0.0004959968
0.000442778
0.0004002249
0.0003610417
0.000332159
0.0003527493
0.0004696667
0.0007432994
0.001308151
0.002541955
0.005562738
0.006277779
0.006621161
0.006879626
0.00719449
0.008253088
0.02176341
0.008081929
0.007074862
0.006686425
0.006477467
0.006260684
0.005705954
0.003172084
0.002027901
0.001422782
0.001061608
0.0008289834
0.0006722888
0.0005646224
0.0004900713
0.0004363315
0.0003915003
0.0003475802
0.0003119062
0.0003272338
0.000441195
0.0007113957
0.001271168
0.002499959
0.00552269
0.00626308
0.006620354
0.006886419
0.007204185
0.008263198
0.02180035
0.008082324
0.007075016
0.006685399
0.006472721
0.006242378
0.005628276
0.003127111
0.002000643
0.00140488
0.001049223
0.0008200619
0.0006655627
0.0005591806
0.0004851049
0.0004309153
0.0003843143
0.0003367648
0.000295858
0.0003068555
0.0004179074
0.0006845491
0.001239164
0.002461916
0.005478605
0.006246726
0.006616622
0.00688928
0.00720974
0.00826932
0.02182296
0.008082681
0.007075357
0.00668482
0.006465807
0.006179675
0.004844359
0.002979149
0.001954542
0.001383832
0.001037361
0.000812463
0.0006601525
0.0005548586
0.0004811471
0.0004267397
0.0003792985
0.0003299558
0.0002859665
0.0002931408
0.0004005536
0.0006629206
0.001211733
0.002427106
0.005436493
0.006230652
0.00661169
0.006889827
0.007212588
0.008272762
0.0218359
0.008082913
0.007075607
0.006684582
0.006462279
0.0061737
0.005151978
0.002956607
0.00193177
0.001370432
0.001029311
0.0008072431
0.0006563882
0.0005517515
0.0004782456
0.0004239231
0.0003767866
0.0003278848
0.0002833751
0.0002870766
0.000389589
0.0006460086
0.001185719
0.002383464
0.005353655
0.00621013
0.006606055
0.006889152
0.007213762
0.008274453
0.02184243
0.008083045
0.007075765
0.006684562
0.006462044
0.006160334
0.004756872
0.002922592
0.001922087
0.001364837
0.001025744
0.0008047978
0.000654454
0.0005499305
0.0004763787
0.0004222924
0.0003764081
0.0003300887
0.0002877923
0.0002887265
0.0003852068
0.0006331076
0.001153376
0.002265165
0.004568798
0.006148222
0.006598106
0.006887849
0.007213913
0.008274981
0.02184462
0.008083028
0.007075741
0.006684629
0.00646216
0.0061736
0.005153078
0.002955354
0.001929081
0.001367796
0.001027127
0.0008053632
0.000654496
0.000549538
0.0004756604
0.000421749
0.0003774654
0.0003348756
0.0002969447
0.0002968908
0.0003878911
0.0006282636
0.001134131
0.00221671
0.004777514
0.006130957
0.006593517
0.006886653
0.007213364
0.008274613
0.02184345
0.00808295
0.007075666
0.006684868
0.006465268
0.006179157
0.004850412
0.002975333
0.001947561
0.001377721
0.001032661
0.0008086308
0.0006564737
0.0005507138
0.000476388
0.0004226444
0.0003799104
0.0003409566
0.0003079316
0.0003091214
0.0003975471
0.0006364453
0.001147382
0.0022642
0.005076765
0.006155095
0.006595258
0.006885893
0.007212112
0.008273332
0.0218389
0.00808288
0.007075751
0.006685681
0.006470451
0.006230856
0.005590335
0.003091749
0.001978793
0.001392097
0.001041169
0.0008141348
0.0006602464
0.0005535102
0.0004787826
0.000425338
0.0003840705
0.0003482467
0.0003197405
0.0003238395
0.000412739
0.0006554672
0.001185986
0.002373793
0.005347431
0.006202491
0.006601635
0.00688512
0.007209874
0.008270887
0.02183008
0.008082719
0.007075786
0.006686711
0.006475517
0.006252763
0.00568473
0.003148789
0.002010352
0.001410403
0.001052527
0.0008217011
0.0006657017
0.0005578832
0.0004828568
0.0004299044
0.0003901115
0.0003570121
0.0003325097
0.0003405401
0.0004318643
0.0006785481
0.001219041
0.002427063
0.005416461
0.006222501
0.006605328
0.006883184
0.00720609
0.008266786
0.02181516
0.008082459
0.007075879
0.006688056
0.006480193
0.006265985
0.005718646
0.003181516
0.002034992
0.001427935
0.001064993
0.0008307781
0.0006726493
0.0005637116
0.0004884714
0.0004361875
0.0003979546
0.0003674137
0.0003466686
0.0003593845
0.0004546733
0.0007057331
0.001252435
0.002467381
0.005456396
0.006236589
0.006607383
0.006879216
0.00719984
0.008260179
0.02179113
0.008081654
0.007075328
0.006688876
0.006484228
0.006276934
0.005744821
0.003210633
0.002060957
0.001448372
0.001080258
0.0008420801
0.0006812984
0.0005709347
0.0004954122
0.0004439001
0.0004073577
0.000379434
0.0003625447
0.0003806764
0.0004812799
0.0007376211
0.001290031
0.002509928
0.005498403
0.006250337
0.006607323
0.006871835
0.007189765
0.0082498
0.02175347
0.008079551
0.007072991
0.006687868
0.006486738
0.006287271
0.005773858
0.003257347
0.002104063
0.001480565
0.00110257
0.0008573759
0.0006922084
0.0005795483
0.0005034131
0.0004526645
0.000417959
0.0003928837
0.0003802547
0.0004045891
0.0005116892
0.000774232
0.001332536
0.002556725
0.005543584
0.006262513
0.006603228
0.006859037
0.007173992
0.008233879
0.02169572
0.00807502
0.007067224
0.006683127
0.006485921
0.00629736
0.005816864
0.003379239
0.002197935
0.001538762
0.001137308
0.0008784774
0.0007058084
0.0005894307
0.0005121135
0.000462017
0.000429293
0.000407417
0.0003996864
0.000431052
0.0005456357
0.0008150304
0.001379133
0.002605919
0.005581435
0.006269565
0.006592385
0.006838242
0.007150082
0.00821
0.02160894
0.008066424
0.007055823
0.006672298
0.006479472
0.006307989
0.005898169
0.003760855
0.002400226
0.001633373
0.001184705
0.0009044583
0.000721405
0.0006000606
0.0005210141
0.0004714265
0.0004408231
0.0004225637
0.0004205191
0.0004597337
0.0005825734
0.0008590793
0.001428252
0.002654654
0.00560771
0.006268294
0.006571823
0.006806416
0.007114992
0.008174912
0.02148054
0.008051304
0.007035786
0.006652626
0.006464339
0.006308874
0.005968813
0.004226671
0.002590269
0.001720621
0.001231017
0.000931139
0.0007376363
0.0006108225
0.0005296338
0.0004803907
0.0004520172
0.0004377999
0.0004422945
0.0004901427
0.000621908
0.0009056076
0.001478724
0.002701223
0.005624506
0.006256409
0.006538786
0.00676043
0.007065292
0.0081245
0.02129242
0.008026027
0.007003169
0.006620996
0.006438266
0.006297127
0.00602063
0.00491558
0.002760202
0.001803013
0.001279624
0.0009606355
0.0007555064
0.0006220255
0.0005378942
0.0004886239
0.0004624748
0.000452656
0.0004645385
0.0005218643
0.0006635557
0.0009552561
0.001531926
0.002746628
0.005631537
0.006233443
0.00649241
0.006698687
0.00699878
0.008056931
0.02101908
0.007986606
0.006956151
0.006578671
0.006405253
0.006285632
0.006093815
0.005461016
0.003027454
0.001946201
0.001358927
0.001004586
0.0007796355
0.0006354181
0.0005463838
0.0004962264
0.0004720429
0.0004668048
0.0004868752
0.0005548614
0.0007088443
0.001012567
0.00159746
0.002804263
0.005637117
0.006207785
0.006440416
0.006627639
0.006921757
0.008000318
0.02063603
0.007936105
0.006912283
0.006554206
0.006399811
0.006305116
0.006173445
0.005732757
0.003470743
0.002219383
0.001502607
0.001077039
0.0008156095
0.0006532726
0.0005561157
0.0005036621
0.0004808248
0.0004800472
0.0005089904
0.0005895464
0.0007613466
0.001090173
0.001707724
0.002933702
0.005685222
0.006221814
0.006423639
0.006585361
0.006865521
0.007959708
0.02009734
0.007928762
0.006987048
0.006691673
0.006577285
0.006515443
0.006437684
0.006179802
0.00503827
0.002794112
0.00174808
0.001186151
0.0008650815
0.0006761034
0.0005674846
0.0005111144
0.0004885286
0.0004914973
0.0005296034
0.0006254147
0.000825216
0.001211104
0.001949725
0.003383206
0.005962828
0.006444955
0.006605033
0.00673095
0.006981333
0.008071765
0.01945309
0.008337986
0.007761676
0.007622785
0.007578992
0.007560529
0.00753879
0.007435193
0.006880231
0.003568881
0.002054477
0.001306511
0.000915011
0.0006979936
0.0005768984
0.0005142907
0.0004888778
0.0004927966
0.0005390064
0.0006526044
0.0008904561
0.001377116
0.002457384
0.005278109
0.007234266
0.007536785
0.007615843
0.007684263
0.007871981
0.008979982
0.02346823
0.007928803
0.006987119
0.00669182
0.006577574
0.006515718
0.006436645
0.006173638
0.005024339
0.002772978
0.001723654
0.001180815
0.0008673973
0.000678278
0.000566453
0.0005058471
0.0004790334
0.0004789665
0.0005166891
0.0006142211
0.0008128695
0.001196728
0.001935886
0.003374802
0.005960969
0.006443994
0.006604537
0.006730957
0.006981628
0.00807198
0.01945355
0.007246931
0.005588015
0.004912088
0.004599017
0.004410482
0.004218343
0.003881365
0.003158065
0.002168097
0.001504527
0.001088519
0.0008244666
0.00065759
0.0005568861
0.0005021028
0.0004778673
0.000476911
0.0005071692
0.0005882157
0.0007546144
0.001066139
0.001613289
0.002503896
0.00368261
0.004224903
0.004493954
0.004688585
0.004943249
0.005582151
0.00843181
0.00720026
0.00533957
0.004487122
0.004052876
0.003777362
0.003513829
0.003134843
0.002421732
0.001782986
0.001317858
0.0009969609
0.0007793529
0.000635465
0.0005454476
0.0004943533
0.0004695518
0.0004646588
0.0004862301
0.0005527267
0.0006928336
0.0009517925
0.00139134
0.002081453
0.003006014
0.003528433
0.003829887
0.004057231
0.004326188
0.004910452
0.007446623
0.007249193
0.005353778
0.004435994
0.003940366
0.003607888
0.003283964
0.002851675
0.002148224
0.001598598
0.001208027
0.0009350741
0.0007460164
0.0006180888
0.0005358011
0.0004869115
0.0004605243
0.0004509071
0.0004637364
0.000517745
0.0006398551
0.0008711925
0.001269191
0.001908686
0.00280751
0.003350465
0.003687393
0.003954817
0.004270065
0.004945555
0.008052577
0.007294597
0.005405133
0.004466968
0.003942233
0.003571684
0.003192298
0.002664511
0.002002363
0.001499177
0.001143995
0.0008958279
0.000723135
0.0006050741
0.0005275929
0.0004795568
0.0004509391
0.0004362695
0.0004405506
0.0004837302
0.0005937087
0.0008116313
0.001196614
0.001832264
0.002755554
0.003338185
0.003714053
0.004018225
0.004370421
0.005114253
0.008698581
0.007324547
0.005445655
0.004501619
0.00396228
0.003567809
0.003152198
0.002556965
0.001917736
0.001437805
0.001101991
0.0008685027
0.0007060604
0.0005943531
0.000519831
0.0004718061
0.0004406226
0.0004207587
0.0004166547
0.0004500644
0.0005512698
0.0007621482
0.001143631
0.001786398
0.002740837
0.003365076
0.003776703
0.004109598
0.004484684
0.005267543
0.00917544
0.007342243
0.005470888
0.004524497
0.003975417
0.003560713
0.00311121
0.002442523
0.001830871
0.001380392
0.001065179
0.0008451705
0.0006912321
0.0005844377
0.0005119941
0.0004635999
0.0004297328
0.0004045913
0.0003921682
0.0004165471
0.0005109709
0.0007173738
0.001097393
0.001746964
0.002726956
0.003388909
0.003831617
0.004186809
0.004576003
0.005379616
0.009505419
0.007351928
0.005484679
0.004536329
0.003979405
0.003547172
0.003068565
0.00233608
0.001749242
0.001328381
0.00103282
0.000824787
0.000677966
0.0005750963
0.0005042078
0.0004552911
0.0004187052
0.0003881443
0.0003673567
0.0003834557
0.0004726078
0.0006756209
0.001053777
0.001706862
0.002703832
0.003398928
0.003868838
0.004242296
0.00464132
0.005456583
0.009729419
0.00735672
0.005491116
0.00454068
0.003977718
0.003534127
0.003041622
0.002289237
0.00170638
0.00129623
0.001010168
0.0008090634
0.0006668505
0.0005666996
0.0004969023
0.0004474
0.0004080608
0.0003718337
0.0003426043
0.0003514207
0.0004367122
0.00063692
0.00101227
0.001665125
0.002668939
0.003395096
0.003889372
0.00427856
0.004685421
0.005507893
0.009879455
0.007358704
0.005493269
0.004540631
0.003972695
0.003520997
0.003021582
0.002263903
0.001681825
0.001275753
0.0009942473
0.0007970306
0.0006577142
0.000559427
0.0004904152
0.0004403207
0.0003981909
0.0003560804
0.0003185934
0.0003214494
0.0004041415
0.000601911
0.0009737622
0.001623816
0.002627236
0.003381152
0.003897136
0.004300143
0.004713763
0.005541133
0.009977933
0.007359233
0.005493236
0.004538368
0.00396581
0.003505986
0.003001838
0.002243232
0.001662965
0.001260052
0.0009817976
0.0007873546
0.0006501487
0.0005532574
0.0004848247
0.0004341313
0.0003893135
0.0003415911
0.0002967683
0.0002950637
0.0003758872
0.0005713064
0.0009394352
0.001586086
0.002589397
0.003361962
0.003896372
0.004311382
0.004730943
0.005561864
0.01004065
0.007359155
0.005492358
0.004535248
0.003957674
0.003487708
0.002971726
0.002217378
0.00164326
0.00124546
0.0009710054
0.0007792604
0.0006438835
0.0005480983
0.0004800479
0.0004287973
0.0003818532
0.0003298416
0.0002795265
0.0002741734
0.0003529223
0.0005456206
0.0009098893
0.001553097
0.002557671
0.003341099
0.003890702
0.004315873
0.004740543
0.005574115
0.01007888
0.007358947
0.005491408
0.004532093
0.003948261
0.003460363
0.002888217
0.002173252
0.001619021
0.001230841
0.0009615044
0.0007726416
0.0006388942
0.0005439404
0.0004761247
0.0004245781
0.0003766709
0.0003226757
0.0002693285
0.0002605269
0.0003360684
0.0005251237
0.0008849604
0.001523855
0.002528037
0.003320301
0.003882781
0.004316369
0.004745255
0.005580791
0.01010065
0.007358779
0.005490745
0.004529941
0.003941854
0.003443045
0.002867099
0.002150927
0.001603953
0.001221108
0.0009550666
0.0007681205
0.0006353862
0.0005408514
0.0004731278
0.0004216865
0.0003742785
0.0003210713
0.0002675575
0.0002552558
0.0003259613
0.0005098614
0.0008635238
0.001494443
0.002491997
0.003298497
0.00387399
0.004314776
0.004746987
0.005583915
0.01011155
0.007358734
0.005490512
0.004529163
0.003940005
0.003440344
0.002851868
0.002142825
0.001597976
0.001216957
0.0009522079
0.0007659814
0.0006335023
0.0005388908
0.0004709985
0.0004198305
0.0003741182
0.0003244037
0.0002738582
0.0002584622
0.0003229857
0.0005000508
0.0008442328
0.001455356
0.002405968
0.003269446
0.003864725
0.004312315
0.00474697
0.005584769
0.01011512
0.00735883
0.005490746
0.004529699
0.003941124
0.00344169
0.002865844
0.0021488
0.001601543
0.001218973
0.0009532549
0.0007663959
0.0006333958
0.0005382455
0.0004698673
0.0004187775
0.000375057
0.0003302306
0.0002852946
0.0002686736
0.0003272098
0.0004977424
0.0008340173
0.001430058
0.002365941
0.00324867
0.003858407
0.0043101
0.004745834
0.005583926
0.01011307
0.007359084
0.005491449
0.00453156
0.003946453
0.003456735
0.002884867
0.002167514
0.001613167
0.001226054
0.0009576774
0.0007691891
0.0006351101
0.0005391643
0.0004702217
0.0004191787
0.0003772196
0.0003368531
0.0002979671
0.0002827269
0.0003378029
0.0005050252
0.0008415071
0.001443238
0.002397476
0.003256648
0.003859376
0.004308734
0.004743634
0.005581348
0.01010541
0.00735948
0.005492561
0.004534309
0.003953219
0.003475405
0.002948538
0.00219739
0.001629708
0.001236622
0.0009647679
0.0007740648
0.0006385756
0.0005417652
0.0004724131
0.0004216289
0.0003812403
0.0003444136
0.0003107165
0.0002986092
0.0003531389
0.0005205634
0.0008638386
0.001486787
0.00247669
0.003286814
0.003866008
0.004307524
0.004739846
0.005576512
0.01009061
0.007359899
0.005493903
0.00453791
0.00396235
0.00349662
0.002986743
0.002228109
0.001650707
0.001250639
0.0009743171
0.0007808353
0.0006436769
0.0005459908
0.0004764369
0.000426197
0.0003873546
0.0003533988
0.0003239368
0.0003158679
0.0003720695
0.0005412253
0.0008893192
0.001520851
0.0025163
0.00330774
0.003871317
0.004304633
0.004733379
0.005568355
0.01006551
0.007360117
0.005495041
0.004541344
0.003970638
0.003513923
0.0030107
0.002251331
0.001669802
0.001265276
0.000985293
0.0007891419
0.0006502482
0.0005516864
0.0004820857
0.0004326346
0.0003954259
0.0003640465
0.0003382828
0.0003348145
0.0003943607
0.0005664754
0.0009183457
0.001553237
0.002546115
0.003325505
0.003874409
0.004298289
0.004722476
0.005555017
0.01002486
0.007359636
0.005495154
0.004543708
0.003977601
0.003528494
0.003030372
0.002273168
0.00169025
0.001282257
0.0009985541
0.0007993368
0.000658337
0.0005587046
0.0004890738
0.0004405763
0.0004051527
0.0003763567
0.0003542151
0.0003558991
0.0004201489
0.000596423
0.0009521148
0.001588842
0.00257643
0.003341964
0.003873608
0.004286015
0.004704577
0.005533697
0.009960882
0.007357607
0.005492908
0.004543644
0.003982635
0.003542156
0.003052217
0.00230286
0.001719441
0.001306057
0.001016375
0.0008123738
0.000668185
0.0005669141
0.0004970668
0.0004495885
0.0004161295
0.0003901366
0.0003719197
0.0003794166
0.0004495417
0.0006310368
0.0009908439
0.00162856
0.00260826
0.003354967
0.003865733
0.004264342
0.004676146
0.005500392
0.009862382
0.007352702
0.005486251
0.004539
0.00398415
0.003555827
0.003081823
0.002356727
0.001769096
0.001342625
0.001041315
0.0008291639
0.0006799412
0.0005760974
0.0005056548
0.0004591658
0.0004278549
0.000405023
0.0003913136
0.0004053964
0.0004824389
0.0006699993
0.00103406
0.001671816
0.002642313
0.00336098
0.003846665
0.004228914
0.004632555
0.005449509
0.009713507
0.007342881
0.005472194
0.004526731
0.003979437
0.003568272
0.003123509
0.002463428
0.001850253
0.001393826
0.001073001
0.0008491638
0.0006931634
0.0005858211
0.0005143414
0.0004687463
0.0004397528
0.0004205137
0.0004120797
0.0004335991
0.0005185354
0.0007128457
0.00108102
0.001717242
0.002676059
0.003356116
0.003812239
0.004175026
0.004568236
0.005373368
0.00949162
0.007325038
0.00544667
0.004503328
0.003965169
0.003572716
0.003159327
0.002567566
0.001928207
0.001445514
0.001106597
0.0008708492
0.0007072946
0.0005956991
0.0005226862
0.0004778052
0.000451249
0.0004360412
0.0004337466
0.0004636217
0.0005575348
0.0007594619
0.001131613
0.001763513
0.002701956
0.00333873
0.00376093
0.004099916
0.004478249
0.005262396
0.009164345
0.00729493
0.005405844
0.00446816
0.003944123
0.003574468
0.003195453
0.002667131
0.002007112
0.001503295
0.001146203
0.0008965988
0.000723467
0.0006060972
0.0005306217
0.0004860391
0.0004619096
0.0004510959
0.000455826
0.0004951339
0.0005996781
0.0008113883
0.001189435
0.001816582
0.002727883
0.003318539
0.003702159
0.004010836
0.004365451
0.005110374
0.008690399
0.007249375
0.005354201
0.004436726
0.003941463
0.003609104
0.003284084
0.002846153
0.002153856
0.001604837
0.001210542
0.0009350517
0.0007454459
0.0006185564
0.000538705
0.0004935504
0.0004715793
0.0004653427
0.0004779508
0.0005281555
0.0006464767
0.0008738777
0.001266948
0.001899812
0.002789297
0.003336985
0.003679136
0.003949572
0.004266432
0.004942717
0.008047024
0.007200319
0.005339762
0.004487508
0.00405356
0.003778729
0.003517344
0.003142778
0.002444041
0.001800657
0.001324435
0.00099704
0.0007777997
0.000635098
0.0005479407
0.0005008562
0.000480425
0.000478647
0.0004998688
0.0005630432
0.0007009649
0.0009579083
0.001394021
0.002078566
0.002995104
0.003520081
0.00382472
0.004053807
0.004323656
0.004908385
0.007443109
0.007246919
0.005588056
0.004912206
0.004599256
0.004411116
0.004220162
0.003883299
0.003141163
0.002176719
0.001510723
0.001087542
0.0008214125
0.0006560855
0.0005587512
0.0005082343
0.0004882868
0.0004902767
0.0005204161
0.0005989556
0.0007649081
0.001076342
0.001621286
0.002506347
0.003676647
0.004220858
0.004491546
0.004686832
0.004941772
0.005580867
0.008429693
0.007928764
0.006987056
0.006691696
0.006577331
0.006515383
0.006436482
0.006171291
0.005000578
0.00276475
0.001735589
0.001181984
0.0008639365
0.0006759053
0.0005675811
0.0005113339
0.0004888185
0.0004918065
0.0005298503
0.0006255424
0.0008252851
0.001211148
0.001949716
0.00338299
0.005962294
0.006444627
0.006604866
0.00673086
0.006981286
0.008071745
0.01945308
0.007936118
0.006912301
0.006554275
0.006399976
0.00630507
0.006171277
0.005724865
0.003514078
0.00222568
0.001500757
0.001078011
0.0008179291
0.0006544523
0.0005544906
0.0004981783
0.0004711946
0.0004674074
0.0004964189
0.0005795893
0.0007516248
0.00107947
0.001697428
0.002926925
0.005685962
0.006222581
0.006424172
0.006586046
0.006866285
0.007960161
0.02009863
0.007200266
0.005339594
0.004487169
0.004052935
0.003777429
0.003514272
0.003137773
0.002449009
0.001799638
0.001323819
0.0009984648
0.0007796124
0.0006355218
0.0005455305
0.0004944915
0.000469771
0.000465
0.0004867126
0.0005532323
0.0006930951
0.0009515189
0.001390414
0.002079877
0.003003545
0.003526742
0.003829018
0.004056849
0.004326055
0.004910438
0.007446625
0.007133544
0.005018936
0.003923247
0.003316445
0.002930005
0.002617182
0.002296099
0.001891183
0.001493862
0.001166648
0.0009189445
0.0007398027
0.0006156792
0.0005348096
0.0004865259
0.0004606745
0.0004518084
0.0004650874
0.0005168331
0.0006290339
0.0008302118
0.001147092
0.001587416
0.002093705
0.00249385
0.002770701
0.002977096
0.003167675
0.003434116
0.004244279
0.007177695
0.005013258
0.003822763
0.003128617
0.002676037
0.002325484
0.00200243
0.001655306
0.001335881
0.001071018
0.0008646042
0.0007104932
0.0006003387
0.0005259806
0.0004791142
0.0004512171
0.0004375536
0.0004423536
0.0004812191
0.0005733611
0.0007405203
0.0009997637
0.001353084
0.001761829
0.002119836
0.002389964
0.002600759
0.00279251
0.003045952
0.003801227
0.007222129
0.005060816
0.003839073
0.003105312
0.002614484
0.002233605
0.001889167
0.001552856
0.001258045
0.001018031
0.000831331
0.0006909095
0.0005890513
0.0005185015
0.0004718377
0.0004413405
0.0004225805
0.0004190461
0.00044675
0.0005252011
0.0006745962
0.0009112826
0.001241604
0.00163912
0.002006794
0.002299128
0.002539786
0.002771614
0.00309959
0.004092041
0.007251705
0.005100824
0.003869536
0.00311792
0.002605528
0.002204441
0.00184175
0.00150364
0.00121628
0.0009867274
0.0008098134
0.0006769182
0.0005798473
0.0005113288
0.0004641237
0.0004307546
0.0004067192
0.0003948952
0.0004126535
0.0004816325
0.0006221525
0.0008517316
0.001181518
0.001592472
0.001988551
0.002313469
0.002587956
0.002857963
0.003249724
0.00446462
0.007268999
0.005125729
0.003890921
0.003129749
0.002603286
0.002187656
0.001807596
0.00146745
0.001185529
0.0009633348
0.0007930942
0.0006652453
0.0005713181
0.0005039799
0.0004559593
0.0004196476
0.0003901357
0.0003698795
0.0003786006
0.0004408775
0.0005769103
0.0008049877
0.00113999
0.001568052
0.001994668
0.002351075
0.002654069
0.002950917
0.003382714
0.004760616
0.00727823
0.005139029
0.00390203
0.003134507
0.002597717
0.002171796
0.001777594
0.001436676
0.00115995
0.000943875
0.000778821
0.0006547501
0.0005631369
0.0004966415
0.0004478275
0.0004085615
0.0003731866
0.0003441372
0.0003447679
0.0004024708
0.0005361714
0.0007640776
0.001103777
0.001545114
0.001998962
0.002382532
0.002708146
0.003023253
0.003479148
0.004970136
0.007282585
0.005144961
0.003906038
0.003133923
0.002589954
0.002158582
0.001757987
0.001415762
0.001141303
0.0009286865
0.0007669369
0.00064547
0.0005555847
0.0004898342
0.00044041
0.0003981202
0.0003562079
0.0003179038
0.0003117408
0.0003667666
0.0004992649
0.000726841
0.001069296
0.001519791
0.001994892
0.002401156
0.002744977
0.003073254
0.003544261
0.005112192
0.007284169
0.005146669
0.003905912
0.003130247
0.002581243
0.002146971
0.001743603
0.001400609
0.001127268
0.0009166708
0.000757063
0.0006374494
0.0005489554
0.0004839756
0.0004341558
0.0003886608
0.0003394249
0.0002917937
0.0002806099
0.0003345392
0.0004663446
0.0006930624
0.001036576
0.001493324
0.001983308
0.00240826
0.002767034
0.003105436
0.003586431
0.005205689
0.007284326
0.005146238
0.003903747
0.003125162
0.002573047
0.002136
0.001731069
0.001387985
0.00111572
0.0009067298
0.0007487806
0.0006306346
0.0005433071
0.0004790239
0.0004288404
0.0003800404
0.0003234217
0.0002675921
0.0002531943
0.0003067709
0.0004377875
0.000663096
0.0010065
0.001467242
0.001967175
0.002407244
0.00277832
0.003124769
0.003612617
0.005265173
0.007283894
0.005144979
0.003900853
0.003119487
0.002564244
0.002123603
0.001718004
0.001375996
0.001105482
0.0008982738
0.0007418632
0.0006249364
0.000538481
0.0004745883
0.0004239033
0.0003723882
0.000310217
0.0002486067
0.0002317941
0.0002844409
0.0004139619
0.0006373239
0.0009798534
0.001443066
0.001949356
0.002401457
0.002782519
0.00313537
0.003627987
0.005301302
0.007283359
0.005143665
0.003898052
0.003113837
0.002554541
0.002106989
0.001703048
0.001364175
0.001096444
0.0008913217
0.0007363536
0.0006203542
0.000534411
0.0004706455
0.0004196576
0.0003670201
0.0003025454
0.0002380116
0.000218326
0.0002683609
0.0003952081
0.0006159775
0.0009568541
0.001421111
0.001931796
0.002393507
0.002782531
0.003140366
0.003636261
0.005321736
0.007282962
0.005142737
0.003896123
0.003109959
0.002548138
0.002097396
0.001693498
0.001356313
0.001090377
0.000886643
0.0007325674
0.0006170061
0.0005311522
0.0004673413
0.0004165596
0.0003648425
0.0003017854
0.0002374451
0.0002139962
0.0002592613
0.0003819166
0.0005991075
0.0009370088
0.001400481
0.001915211
0.002385087
0.002780432
0.003141982
0.003640024
0.005331814
0.00728282
0.005142388
0.00389537
0.003108488
0.00254577
0.002093854
0.001689783
0.001353054
0.001087785
0.000884563
0.0007306977
0.0006150147
0.0005287558
0.0004645281
0.0004140442
0.0003649277
0.0003070698
0.0002465137
0.0002189856
0.0002576564
0.0003746421
0.0005870598
0.0009197397
0.001378652
0.001899671
0.002377364
0.002777626
0.003141673
0.003640924
0.005334979
0.00728297
0.005142685
0.003895879
0.003109372
0.002547192
0.002096176
0.001692014
0.001354807
0.00108898
0.0008852551
0.0007308928
0.000614598
0.0005275158
0.0004623508
0.0004115181
0.0003651468
0.0003145439
0.0002613728
0.0002315482
0.0002633492
0.0003742954
0.0005822779
0.000910449
0.001365386
0.001890003
0.002372546
0.002775212
0.003140218
0.00363975
0.005332945
0.00728341
0.005143606
0.00389757
0.00311255
0.002552321
0.002104
0.001699502
0.001360759
0.001093431
0.0008884768
0.0007331164
0.0006159315
0.0005279187
0.0004617707
0.0004104738
0.0003661731
0.0003217219
0.000276433
0.0002477754
0.0002750364
0.0003813973
0.0005874259
0.0009158246
0.001371426
0.001892931
0.002372791
0.002773699
0.003137722
0.003636523
0.005325785
0.007284086
0.005145037
0.003900167
0.003117161
0.002559566
0.002115893
0.00171025
0.00136964
0.001100442
0.0008938619
0.0007372078
0.000619025
0.0005302148
0.0004634613
0.0004121275
0.0003694874
0.0003293909
0.0002903662
0.0002649667
0.0002907431
0.0003950039
0.0006015634
0.0009338241
0.001393374
0.001906405
0.002377051
0.002772413
0.003133579
0.003630552
0.005311979
0.007284852
0.005146754
0.003903454
0.003123217
0.002569003
0.002129647
0.001723977
0.001381314
0.001109752
0.0009011587
0.0007429857
0.0006237534
0.0005343139
0.0004673667
0.0004164793
0.0003754045
0.0003384659
0.0003040644
0.0002827554
0.0003094598
0.0004136295
0.000621209
0.0009553562
0.001414525
0.00192086
0.002381657
0.002769654
0.003126467
0.003620391
0.00528838
0.007285435
0.005148274
0.003906659
0.003129197