/*--------------------------------*- C++ -*----------------------------------*\
| =========                 |                                                 |
| \\      /  F ield         | OpenFOAM: The Open Source CFD Toolbox           |
|  \\    /   O peration     | Version:  2506                                  |
|   \\  /    A nd           | Website:  www.openfoam.com                      |
|    \\/     M anipulation  |                                                 |
\*---------------------------------------------------------------------------*/
FoamFile
{
    version     2.0;
    format      ascii;
    arch        "LSB;label=32;scalar=64";
    class       volScalarField;
    location    "450/airRegion";
    object      k;
}
// * * * * * * * * * * * * * * * * * * * * * * * * * * * * * * * * * * * * * //

dimensions      [0 2 -2 0 0 0 0];

internalField   nonuniform List<scalar> 
85779
(
0.09241212
0.08934057
0.088442
0.08807849
0.08785387
0.08751948
0.08636668
0.08156437
0.05911966
0.03940203
0.03097127
0.02615603
0.02326692
0.02171336
0.02110836
0.02105275
0.02124272
0.02165987
0.02270252
0.02532454
0.03106012
0.04281602
0.06841045
0.08430193
0.08711704
0.08779481
0.0880093
0.08782128
0.08604431
0.07249496
0.09016743
0.08487198
0.08289243
0.0819497
0.08129607
0.08037672
0.07787085
0.06955746
0.04802307
0.0366605
0.02998367
0.02572867
0.02307068
0.02162243
0.02106665
0.02102816
0.02119108
0.02148416
0.02228613
0.02449889
0.02930519
0.03814872
0.05309426
0.07501258
0.07956557
0.08088803
0.0813122
0.08098985
0.07859468
0.06397155
0.09012254
0.08421411
0.08174252
0.08045104
0.0794845
0.07804676
0.07379486
0.05465454
0.04225153
0.03426741
0.02889362
0.02522643
0.02283766
0.02147952
0.02090277
0.02078106
0.02082918
0.02097784
0.0215889
0.02348201
0.02766171
0.0352672
0.04836722
0.07223507
0.07728328
0.07889921
0.07955896
0.07954784
0.07791593
0.06537798
0.09038637
0.08437275
0.08171184
0.08023419
0.07904066
0.07713956
0.07160869
0.05063024
0.03960465
0.03273432
0.02804678
0.02478248
0.02260327
0.02131075
0.02069199
0.02045954
0.02036294
0.02034849
0.02077929
0.02244576
0.02631522
0.03354213
0.04649416
0.07138648
0.07669313
0.07851967
0.07940791
0.07970315
0.07857102
0.06654382
0.09061687
0.08462534
0.0818969
0.08031474
0.07890826
0.07625258
0.06701151
0.04796793
0.03797792
0.03170433
0.02741036
0.02440298
0.02236532
0.02110835
0.02043186
0.02007405
0.01981606
0.01962692
0.01988922
0.02140712
0.0251597
0.03234518
0.04549388
0.07108638
0.07662303
0.07863827
0.07971516
0.08021458
0.07931331
0.06736824
0.0907726
0.08481924
0.08206413
0.08041611
0.07885855
0.0755847
0.06116042
0.04603649
0.03682988
0.03093856
0.02690154
0.02406605
0.02212028
0.02087233
0.02012346
0.01962825
0.01919627
0.01882555
0.01893357
0.0203633
0.02410753
0.03137674
0.04477519
0.07091367
0.07667593
0.07886317
0.08008724
0.0807092
0.0798779
0.06795516
0.0908682
0.08494351
0.08217379
0.08047233
0.07874926
0.07481492
0.05696527
0.04396841
0.03570168
0.03025039
0.02645508
0.02375724
0.02187278
0.02061276
0.01977741
0.01913255
0.018515
0.01795811
0.01792813
0.01931785
0.02311545
0.03051093
0.04414455
0.07073966
0.07672058
0.07906341
0.08040352
0.08110262
0.08028856
0.06835831
0.0909228
0.08501432
0.08223228
0.0804839
0.07860198
0.0740557
0.05365436
0.04203056
0.03466932
0.02964835
0.0260676
0.02347825
0.02163166
0.02034319
0.01940933
0.01860328
0.01778937
0.01704324
0.01689422
0.01828453
0.02217157
0.02970207
0.04354099
0.07053042
0.07671971
0.07920349
0.08063837
0.08139075
0.08057735
0.06863314
0.09095106
0.08504856
0.08225366
0.08046886
0.07849457
0.07367483
0.05254526
0.04112583
0.03404802
0.02922032
0.02575921
0.02323548
0.0214054
0.02007731
0.01903759
0.01806253
0.01704474
0.01610921
0.01586287
0.01728732
0.02128285
0.02894112
0.0429517
0.07028335
0.07667019
0.07928252
0.08079768
0.08159082
0.08077489
0.06881829
0.09096378
0.08506096
0.08225305
0.08043808
0.07840001
0.07343025
0.05209557
0.04067716
0.03367257
0.02892037
0.02551842
0.02303
0.02120244
0.01983001
0.01868415
0.01754069
0.01632026
0.01520195
0.01488031
0.01636033
0.0204673
0.02823695
0.04238533
0.07000755
0.07658177
0.07931159
0.08089637
0.08172318
0.08090597
0.06894036
0.09096853
0.08506261
0.08224239
0.08039932
0.07829871
0.07318702
0.05177955
0.04036974
0.03340386
0.02869454
0.02532845
0.02286116
0.02103036
0.01961606
0.01837453
0.01707943
0.01567548
0.01439291
0.0140115
0.01554648
0.01974822
0.02760509
0.04185601
0.06967677
0.07646496
0.07930472
0.08095045
0.0818061
0.08098975
0.06901839
0.09097024
0.08506098
0.08222908
0.08035153
0.07813026
0.072536
0.05133194
0.04005579
0.03316951
0.0285116
0.02517869
0.02272833
0.02089437
0.01944794
0.01813523
0.01672834
0.01518608
0.01377348
0.01333382
0.01489241
0.01914868
0.02705847
0.04137634
0.06931768
0.07633515
0.07927585
0.0809742
0.08185447
0.08104068
0.0690661
0.09097167
0.08506044
0.08221751
0.08028001
0.07759702
0.06674805
0.05013725
0.03963102
0.03294355
0.02836246
0.02506561
0.02263075
0.02079659
0.01933361
0.0179865
0.01652852
0.01491974
0.01342932
0.01291988
0.01444156
0.01868779
0.02659866
0.04093473
0.06895977
0.07620089
0.07923549
0.08097896
0.0818797
0.08106941
0.06909339
0.09097255
0.08506013
0.08221062
0.08024142
0.07753698
0.06898119
0.04988959
0.03939754
0.03279409
0.02826183
0.02499014
0.02256652
0.02073611
0.01927576
0.017938
0.01650141
0.01491466
0.01341342
0.01281947
0.01422814
0.0183795
0.02620484
0.04041617
0.06821346
0.07600812
0.07918314
0.08097211
0.08189
0.08108349
0.06910716
0.09097314
0.08506034
0.08220849
0.08023505
0.07740892
0.06598969
0.04959858
0.03929661
0.03272988
0.02821577
0.02495343
0.02253497
0.02071231
0.01927412
0.01798932
0.01664567
0.01516863
0.01372638
0.01304093
0.01426799
0.01823577
0.0258308
0.03928766
0.0618893
0.07543321
0.07910169
0.08095785
0.08189074
0.08108775
0.0691118
0.09097318
0.08506061
0.08220998
0.08023879
0.07753307
0.06898254
0.04986415
0.03935821
0.03275543
0.02822658
0.0249569
0.02253734
0.0207258
0.01932548
0.01812555
0.0169227
0.01561164
0.01428429
0.01352946
0.01454663
0.0182931
0.0256714
0.03883358
0.06356539
0.07527716
0.07905362
0.08094506
0.08188533
0.08108453
0.06910933
0.09097318
0.08506163
0.08221566
0.0802718
0.07758346
0.06676155
0.05006605
0.03953664
0.03285974
0.02829038
0.02500001
0.02257443
0.02077601
0.01942189
0.01832012
0.01727232
0.0161398
0.0149471
0.01416399
0.01500534
0.01857078
0.02589106
0.03930272
0.06600347
0.07550566
0.07907388
0.08093983
0.08187465
0.08107389
0.06909971
0.09097348
0.08506441
0.08222684
0.08032663
0.07803346
0.07225824
0.0510276
0.03984517
0.03302501
0.0283998
0.02508143
0.02264689
0.02086248
0.01955743
0.01855427
0.01765474
0.01668888
0.0156277
0.01485601
0.01557915
0.01902443
0.02641176
0.0403699
0.06819183
0.0759396
0.07914235
0.08093755
0.08185614
0.08105372
0.06908109
0.09097337
0.0850674
0.08224042
0.08037723
0.07822611
0.07300957
0.0515421
0.04016558
0.03323732
0.02855191
0.02520096
0.02275524
0.02098453
0.01972823
0.01881901
0.01805461
0.01723694
0.01629542
0.01556529
0.0162266
0.01958216
0.02695559
0.04100932
0.06882096
0.07613398
0.07918238
0.0809244
0.08182396
0.08101977
0.0690496
0.09097255
0.08507063
0.08225539
0.08042154
0.07834335
0.07329308
0.05188592
0.04046265
0.03347551
0.02874228
0.02535904
0.02289981
0.02114088
0.01993125
0.01911041
0.01846895
0.01778337
0.0169504
0.01628294
0.01692903
0.02022282
0.02753965
0.04153382
0.06917649
0.07625908
0.07920285
0.08089344
0.08177036
0.08096498
0.06899887
0.09096807
0.0850694
0.0822665
0.08046018
0.07844029
0.07351604
0.05222302
0.04080554
0.03377251
0.02898592
0.0255608
0.0230802
0.02132813
0.02016188
0.01942466
0.01889727
0.0183329
0.01760184
0.01701291
0.01768024
0.02093915
0.02818867
0.04208047
0.06953069
0.07637324
0.07920476
0.08083527
0.08168443
0.08087904
0.06891928
0.09095499
0.08505624
0.08226603
0.08049047
0.07853825
0.07377832
0.05276051
0.04134611
0.03420897
0.02931765
0.02581722
0.02329612
0.021541
0.02041309
0.01975544
0.0193364
0.01888742
0.01825704
0.01776088
0.01847854
0.02172581
0.02890724
0.04267481
0.06990718
0.07647599
0.07917778
0.08073642
0.08155152
0.08074759
0.06879726
0.090926
0.08502052
0.08224247
0.08050404
0.07865105
0.07419003
0.05400675
0.04237501
0.03490153
0.02977778
0.02613888
0.02354632
0.02177287
0.02067576
0.02009325
0.01977866
0.01944302
0.01891709
0.01852858
0.0193216
0.02257688
0.02969023
0.04330847
0.07023841
0.07654768
0.07910683
0.08058063
0.08135323
0.08055136
0.06861364
0.09087076
0.08494847
0.08218192
0.08048895
0.07879297
0.07494349
0.05732422
0.04430877
0.03592288
0.03037162
0.02652308
0.02382633
0.02201626
0.0209393
0.02042578
0.02021203
0.01998981
0.01957591
0.01931151
0.02020402
0.02348613
0.03053102
0.0439685
0.0705033
0.07657505
0.07897953
0.08035234
0.08106881
0.08026523
0.06834154
0.09077462
0.08482324
0.0820705
0.08042751
0.0788838
0.07565123
0.06131539
0.046213
0.03695807
0.03101365
0.02694912
0.02412811
0.02226182
0.02119103
0.02073831
0.02062143
0.02051359
0.02022155
0.02009926
0.02111821
0.02445243
0.031436
0.04466359
0.07073462
0.07656132
0.07879549
0.08004482
0.08068047
0.07985806
0.06794191
0.09061828
0.08462823
0.08190138
0.08032147
0.07891821
0.07626477
0.06699989
0.048046
0.03805628
0.03174749
0.02743694
0.02445314
0.02250041
0.02141704
0.02101554
0.02099142
0.02099866
0.02083856
0.02087748
0.02205765
0.02548981
0.03244709
0.04544813
0.07096531
0.07654128
0.07858859
0.0796828
0.08019167
0.07929683
0.06735918
0.0903871
0.0843744
0.08171435
0.08023681
0.0790367
0.07709233
0.07137976
0.05075896
0.03976391
0.032802
0.02806622
0.02481939
0.02272782
0.02160717
0.02124636
0.02131007
0.02143088
0.02141023
0.02162965
0.02302037
0.02664195
0.03368733
0.04651069
0.07131985
0.07664328
0.07848801
0.07938586
0.07968636
0.0785585
0.0665383
0.09012268
0.08421456
0.08174302
0.08045128
0.07948639
0.07806297
0.07388022
0.05512314
0.04268843
0.03444543
0.02892805
0.02525072
0.02294859
0.02176225
0.02142972
0.02157222
0.02179916
0.02191908
0.02233634
0.0240074
0.0279964
0.0354541
0.04843584
0.07221407
0.07726124
0.07888365
0.07954639
0.07953686
0.07790733
0.06537521
0.0901673
0.08487182
0.08289194
0.08194856
0.08129559
0.08037592
0.07776002
0.06792295
0.04803087
0.03689479
0.03004109
0.0257433
0.02316837
0.0218925
0.02156927
0.02176751
0.02207867
0.02233079
0.02296011
0.02499785
0.02965896
0.03837458
0.0531916
0.0750235
0.07956422
0.08088476
0.0813073
0.08098395
0.07858945
0.06397051
0.09241199
0.0893403
0.08844137
0.08807706
0.08785166
0.08751853
0.08635689
0.08128716
0.05444332
0.03958022
0.0311155
0.02618737
0.02335946
0.02197144
0.0215877
0.0217516
0.0220749
0.02244879
0.02333428
0.02581466
0.03143936
0.04307678
0.06848351
0.08432337
0.08712671
0.08779873
0.08800977
0.08781991
0.08604264
0.07249491
0.09016746
0.08487204
0.08289245
0.08194948
0.0812948
0.08036206
0.0777053
0.06780959
0.04784531
0.03667399
0.02999463
0.02573376
0.02307634
0.02163235
0.02108382
0.02105465
0.02122504
0.02151849
0.02231432
0.02451798
0.02931389
0.03814825
0.05308701
0.07500397
0.07956055
0.08088562
0.08131116
0.08098945
0.07859455
0.06397149
0.08594115
0.07603467
0.07142043
0.06889875
0.06705616
0.06490665
0.06110992
0.05342427
0.04275744
0.03474974
0.02917023
0.02535196
0.02289433
0.02154445
0.02103779
0.02101831
0.02115729
0.02132803
0.02188358
0.02370385
0.0277765
0.03487932
0.04535095
0.05749371
0.06302156
0.06528142
0.06579812
0.06435441
0.05833996
0.03663826
0.08530896
0.0738154
0.06784396
0.0643169
0.06166699
0.05877873
0.05441815
0.0466198
0.0389844
0.03284935
0.02823024
0.02490186
0.02267816
0.02140331
0.02086671
0.02075663
0.02077658
0.02080265
0.02116246
0.02265895
0.02612403
0.03208175
0.04064808
0.05076045
0.05620923
0.05874321
0.05943825
0.05807862
0.0524929
0.0337257
0.08545122
0.07355019
0.06698626
0.06289261
0.05969778
0.05622646
0.05132624
0.04353929
0.03680699
0.03150453
0.02746152
0.02449037
0.02245555
0.02123555
0.02064898
0.02042096
0.02029196
0.02015419
0.02032432
0.02156827
0.02466387
0.03010376
0.0381064
0.04799224
0.05360704
0.05646258
0.05759039
0.05689598
0.05253183
0.03553134
0.08568256
0.073749
0.06695658
0.06255822
0.05897936
0.05496648
0.04919563
0.04171085
0.03544688
0.03057179
0.02686484
0.02412769
0.02222358
0.02103178
0.02037971
0.02001806
0.0197223
0.01940818
0.01939891
0.02046456
0.02338027
0.02866331
0.03664172
0.04681127
0.05279687
0.05604972
0.05764551
0.05755813
0.05401731
0.03740712
0.08585971
0.07397759
0.06710058
0.06253459
0.05869945
0.05429636
0.04784534
0.04052843
0.03450919
0.02988073
0.02638394
0.02380052
0.02198006
0.0207908
0.02005782
0.01954874
0.01907183
0.01857321
0.01839965
0.01935352
0.02221737
0.02752331
0.03566997
0.04624589
0.05266008
0.0563014
0.05828142
0.05859769
0.05546887
0.03876208
0.08597193
0.07413846
0.06722279
0.06254438
0.05849404
0.05371803
0.04652999
0.03943267
0.03369903
0.02929992
0.0259721
0.02350064
0.02173142
0.02052273
0.01969309
0.01902188
0.01834987
0.01766084
0.01734224
0.01824276
0.02113794
0.026547
0.03490799
0.04587165
0.05269634
0.05668073
0.05895386
0.05952331
0.05659079
0.03968599
0.08603519
0.07423004
0.06728711
0.06252191
0.05828842
0.05318622
0.04535155
0.03845798
0.03300591
0.02881191
0.02562033
0.0232301
0.02148794
0.02024226
0.01930147
0.018453
0.0175719
0.01668815
0.01624839
0.01714778
0.02012747
0.02566783
0.0342294
0.04551318
0.0527092
0.0569903
0.05949004
0.0602255
0.05739173
0.04030711
0.08606635
0.07427153
0.06730422
0.06247474
0.05812141
0.05284455
0.04475626
0.03787658
0.03253099
0.02844309
0.02533332
0.02299294
0.02125916
0.01996463
0.01890224
0.01786397
0.01676216
0.01568273
0.01515043
0.01609337
0.01918823
0.02486039
0.03358487
0.04509364
0.05264011
0.05718172
0.05986402
0.06071763
0.05794011
0.04072053
0.08607834
0.07428208
0.0672911
0.06241063
0.05797338
0.05260075
0.04441423
0.03751552
0.03220411
0.02816644
0.02510252
0.02279068
0.02105406
0.01970571
0.01851869
0.01728668
0.01596165
0.01469378
0.0140988
0.01511498
0.01833371
0.02412342
0.03297292
0.04463045
0.05249481
0.05726486
0.06009895
0.06104335
0.05830363
0.04099074
0.08608017
0.07427621
0.06726163
0.0623344
0.05781644
0.05237467
0.04414585
0.03724328
0.03195526
0.02795068
0.02491731
0.0226236
0.02088001
0.01948087
0.01817946
0.01676987
0.01524035
0.0138049
0.01316753
0.0142581
0.01758372
0.02346666
0.03241304
0.04420011
0.05230465
0.05726829
0.06022956
0.06124694
0.05853625
0.0411624
0.08607768
0.0742637
0.06722496
0.06224679
0.05762897
0.05205849
0.04384589
0.03698816
0.03174451
0.02777695
0.02477084
0.02249128
0.02074158
0.01930346
0.01791703
0.01637691
0.0146936
0.01312707
0.01244576
0.01357288
0.01696011
0.02290066
0.03191581
0.043821
0.05209647
0.05722134
0.06028855
0.06136527
0.05867829
0.04126684
0.08607435
0.07425076
0.06718786
0.06214749
0.05736303
0.05131029
0.04341461
0.03672173
0.03156148
0.02764052
0.0246607
0.02239288
0.02064062
0.01918269
0.01775655
0.01615916
0.0144048
0.01276174
0.01201509
0.0131063
0.01648443
0.02243216
0.03147504
0.04346082
0.05188211
0.05714639
0.06030206
0.06142662
0.05875901
0.04132629
0.08607184
0.0742416
0.06716199
0.062079
0.05719587
0.05108895
0.04317665
0.03654836
0.03143839
0.02754913
0.02458688
0.02232676
0.02057685
0.01912247
0.01771012
0.01614221
0.01441877
0.01276946
0.01193084
0.01289685
0.01617728
0.02206198
0.03105692
0.04303561
0.05164646
0.05705467
0.06028857
0.06145123
0.05879882
0.04135604
0.08607096
0.07423806
0.06715214
0.062057
0.05715746
0.05093978
0.04308678
0.03647776
0.03138471
0.02750685
0.0245502
0.02229293
0.02055063
0.01912359
0.01777851
0.0163263
0.01473449
0.01315151
0.01220278
0.01296375
0.01605854
0.02179628
0.03059157
0.04216989
0.05133659
0.05695208
0.0602613
0.06145268
0.05881086
0.0413658
0.08607194
0.07424074
0.06715819
0.06206961
0.05717893
0.05106907
0.04314547
0.03651302
0.03140444
0.02751608
0.02455247
0.02229358
0.02056377
0.01918271
0.01794292
0.01666232
0.01526467
0.01380923
0.01277031
0.01328888
0.01614773
0.02171408
0.03032836
0.04177683
0.05112569
0.05688158
0.06023506
0.06143925
0.05880193
0.0413602
0.0860748
0.07424931
0.06717965
0.06212517
0.05731942
0.05125813
0.0433363
0.03664156
0.03148969
0.02757383
0.02459379
0.0223302
0.02061592
0.01928958
0.0181676
0.01707001
0.01587447
0.01456654
0.01348979
0.01380412
0.01644213
0.02189233
0.03050623
0.04209688
0.05121185
0.05689229
0.06021937
0.06141303
0.05877268
0.0413393
0.0860792
0.07426261
0.06721134
0.06219926
0.05751098
0.05184567
0.04364797
0.03683692
0.03162732
0.02767535
0.0246734
0.0224033
0.02070594
0.01943606
0.01842771
0.01749811
0.01648479
0.01531773
0.01425178
0.01442867
0.01689833
0.02229133
0.03103585
0.04288725
0.05152388
0.05696495
0.06020594
0.06136781
0.05871733
0.0412989
0.08608413
0.07427875
0.0672518
0.06229416
0.05771886
0.05221499
0.04396977
0.0370822
0.03181215
0.02781835
0.02479079
0.02251264
0.02083213
0.01961712
0.01871354
0.01793205
0.01707618
0.01603349
0.01501155
0.01511681
0.01746723
0.02278995
0.03153186
0.04335568
0.05175537
0.05702207
0.06017151
0.06128969
0.05862353
0.04123031
0.08608768
0.07429334
0.0672908
0.0623819
0.05789433
0.05247194
0.04424706
0.0373366
0.03202926
0.02799972
0.02494598
0.02265782
0.02099248
0.01982937
0.01902219
0.01837243
0.01765418
0.01672117
0.015764
0.01585016
0.01812478
0.023369
0.03203479
0.0437298
0.05194569
0.05704956
0.06009626
0.06115884
0.05847172
0.04111919
0.08608622
0.07429989
0.06732115
0.06245889
0.05804822
0.05269933
0.04453216
0.03763085
0.03229626
0.02822829
0.02514183
0.02283774
0.02118343
0.02006853
0.01935134
0.01882212
0.01822866
0.0173965
0.01651872
0.01662569
0.01886124
0.02402938
0.0325863
0.04410718
0.05211592
0.05703326
0.05995601
0.06094791
0.05823337
0.040944
0.08607391
0.07428869
0.06733368
0.06252406
0.05820316
0.05296456
0.04492261
0.03804194
0.03265808
0.02852504
0.02538504
0.0230513
0.02139987
0.02032811
0.01969585
0.01928019
0.01880482
0.0180711
0.01728615
0.01744579
0.01967265
0.02477062
0.03319764
0.04450463
0.05225519
0.05694892
0.05971953
0.06062054
0.05786848
0.04067358
0.08604192
0.07424547
0.06731439
0.06257061
0.05837726
0.05333289
0.04558273
0.03868364
0.03317058
0.02891294
0.02568228
0.02329676
0.02163526
0.02059911
0.02004667
0.01973996
0.0193803
0.01874829
0.01807118
0.01831203
0.02055712
0.0255918
0.03387033
0.04493447
0.05234547
0.05677014
0.05935228
0.06013226
0.0573229
0.04026315
0.08597756
0.07415149
0.06724602
0.06258637
0.05857263
0.05385381
0.04675712
0.03965011
0.03385536
0.02939589
0.02603328
0.02357032
0.0218817
0.02087028
0.020391
0.0201893
0.01994534
0.0194226
0.01887097
0.01922252
0.02151484
0.02649777
0.03461105
0.04539742
0.05238058
0.05648536
0.05882979
0.05943847
0.05652816
0.03964758
0.0858641
0.07398784
0.0671185
0.0625652
0.05875206
0.05437929
0.04797161
0.04065999
0.03461132
0.02994744
0.02643188
0.02386633
0.02212915
0.02112771
0.02071307
0.0206123
0.02048495
0.0200815
0.01967546
0.02017194
0.02255155
0.02751032
0.03544912
0.04588679
0.05240379
0.05613822
0.05817563
0.05852426
0.05541469
0.03873084
0.08568566
0.07375642
0.06696936
0.0625786
0.05901005
0.05500632
0.04923956
0.04178223
0.03551016
0.03061206
0.02689572
0.0241841
0.02236687
0.02135642
0.02099679
0.02099278
0.02098253
0.02070856
0.02046953
0.02115387
0.02368581
0.02869207
0.03649916
0.04655731
0.05260206
0.05592148
0.05755994
0.05749725
0.05397203
0.03738367
0.08545312
0.07355501
0.06699465
0.06290526
0.05971326
0.0562375
0.05130319
0.04361979
0.03688583
0.03154096
0.02747848
0.02453344
0.02258853
0.02154602
0.02123124
0.02131892
0.02142381
0.02128676
0.02123569
0.02216308
0.02495687
0.03017734
0.03803726
0.04782658
0.05346979
0.05636844
0.05752488
0.05684752
0.0524955
0.03551502
0.08530988
0.07381812
0.0678491
0.06432573
0.06168375
0.05881773
0.05450258
0.04682691
0.0391519
0.03291131
0.02823797
0.02492812
0.02279702
0.02169835
0.021417
0.02158728
0.0217995
0.02180045
0.02195454
0.02319201
0.02642174
0.03220328
0.04064448
0.05066519
0.0561228
0.058681
0.05939235
0.05804249
0.05246492
0.03371509
0.08594142
0.07603579
0.07142271
0.06890295
0.0670655
0.06492869
0.06113411
0.05329472
0.04285316
0.03481289
0.02916498
0.02535945
0.02299832
0.02182515
0.02155994
0.02179052
0.02208851
0.02221917
0.02258923
0.02420256
0.02809557
0.03505418
0.0454052
0.05745121
0.06298037
0.06525038
0.06577305
0.06433258
0.05832179
0.03663215
0.09016731
0.08487187
0.08289209
0.08194881
0.08129475
0.08036516
0.07768871
0.06761642
0.04778122
0.03679018
0.0300083
0.02573649
0.02317054
0.02189922
0.0215799
0.02178141
0.02209373
0.02234321
0.02296804
0.02500238
0.02966147
0.03837551
0.0531903
0.07502056
0.07956229
0.08088374
0.08130673
0.08098362
0.07858925
0.06397046
0.0901226
0.08421432
0.08174282
0.08045105
0.07948259
0.07803903
0.07381178
0.05543577
0.04271311
0.03442329
0.02893588
0.02524081
0.02285158
0.02150336
0.02094431
0.02084588
0.02091414
0.02106802
0.02166645
0.02353451
0.02768432
0.03526492
0.04834932
0.07221405
0.07727128
0.07889346
0.07955654
0.07954702
0.07791577
0.06537802
0.08530902
0.07381562
0.06784436
0.0643174
0.06166777
0.05878381
0.05444925
0.04686029
0.0391332
0.03290425
0.02824661
0.02490853
0.02268573
0.02141683
0.02089067
0.02079442
0.02082717
0.02085939
0.02121414
0.02269417
0.026138
0.03207872
0.04063517
0.05074112
0.0561957
0.058736
0.05943489
0.05807727
0.05249249
0.03372568
0.0843717
0.07075705
0.06286639
0.05790913
0.05423512
0.05076865
0.0467586
0.0415341
0.03610649
0.03131707
0.02744845
0.02452349
0.0224941
0.0212749
0.02069947
0.02049699
0.02040252
0.02029251
0.02045552
0.02160466
0.02439178
0.02902006
0.03511885
0.04149811
0.04597778
0.0483169
0.04868985
0.04658227
0.04001378
0.02318414
0.08439322
0.07015432
0.06137696
0.05560918
0.05129599
0.0474362
0.04339938
0.03876661
0.03419609
0.03013455
0.02677332
0.02416264
0.02229358
0.02110829
0.02046562
0.02013106
0.01988064
0.0196089
0.0195826
0.02045884
0.0227948
0.02669423
0.03177204
0.03710023
0.0411625
0.04345719
0.04393754
0.04209959
0.0362809
0.02154129
0.08457908
0.07023894
0.06110602
0.05491394
0.05019185
0.04600268
0.04175418
0.03726405
0.03301916
0.02930697
0.02623819
0.02383395
0.02207577
0.02090242
0.02017923
0.01969779
0.01927348
0.01882554
0.01861654
0.01929019
0.0213714
0.02495583
0.02972796
0.03491295
0.03908241
0.04166447
0.04259447
0.0414242
0.0365758
0.02262646
0.0847377
0.07043263
0.06116869
0.05476083
0.04978328
0.04534679
0.04088436
0.0363802
0.03225202
0.02870963
0.02580688
0.02353018
0.02183829
0.02065334
0.01983509
0.01919243
0.01857814
0.01794295
0.01756484
0.01810691
0.02008544
0.02360391
0.02840697
0.03379772
0.03832639
0.04134403
0.04278397
0.04221218
0.03800007
0.02397987
0.08484074
0.07058215
0.0612656
0.05473627
0.04958338
0.0449526
0.04027431
0.03573517
0.03167576
0.02824115
0.02544475
0.023248
0.02158929
0.02037124
0.0194416
0.01862075
0.01779934
0.01696795
0.01644163
0.01692051
0.01890615
0.02249391
0.02746431
0.0331625
0.03810994
0.0415617
0.04343327
0.04328056
0.03940361
0.02502843
0.08489826
0.07066818
0.06132173
0.05471251
0.04943004
0.04465245
0.03979112
0.03522474
0.0312191
0.0278619
0.02513762
0.02299049
0.02134166
0.02007291
0.01901502
0.01799616
0.0169485
0.01591388
0.01526904
0.01575014
0.0178185
0.02153798
0.02670716
0.03269713
0.03803921
0.0418683
0.04407469
0.04420022
0.04049163
0.02575758
0.08492528
0.07070539
0.06133495
0.05466891
0.04929546
0.04442894
0.03946607
0.03486518
0.030878
0.02756238
0.02488106
0.02276188
0.02110777
0.01977637
0.01857564
0.01733867
0.01604596
0.0148059
0.01408173
0.01462392
0.01682132
0.02069086
0.02604428
0.03227868
0.03795415
0.04209692
0.04456172
0.04487817
0.0412606
0.02624615
0.08493402
0.07071194
0.06131906
0.05460932
0.04917126
0.04425042
0.03923163
0.03460316
0.03061931
0.02732506
0.02466906
0.02256527
0.02089845
0.0194995
0.01814816
0.01668042
0.01513286
0.01369695
0.01293698
0.01358122
0.01592393
0.01993502
0.02544352
0.03187819
0.03781395
0.04221333
0.04488138
0.04533692
0.04177684
0.02656526
0.08493308
0.0707022
0.06128761
0.05454134
0.04905849
0.04409182
0.03903767
0.03439337
0.03041321
0.02713426
0.02449598
0.02240195
0.02072108
0.01925849
0.01776544
0.01608021
0.01429496
0.01269006
0.01192302
0.01267259
0.01514263
0.01926832
0.02489872
0.03149208
0.03762749
0.04223468
0.04506481
0.04562662
0.0421089
0.02676732
0.08492811
0.07068604
0.06125039
0.0544693
0.04894289
0.04392617
0.03885229
0.03420957
0.03024266
0.02698085
0.02435784
0.02227103
0.02057853
0.01906707
0.01746883
0.01562473
0.01366212
0.01192836
0.01114539
0.01195235
0.01449753
0.01869728
0.02441503
0.03113082
0.03741733
0.04219148
0.04515113
0.04579588
0.04231208
0.02688969
0.08492259
0.07066997
0.06121494
0.05439914
0.04882223
0.04373005
0.03866431
0.03404691
0.03010497
0.02686292
0.0242529
0.02217082
0.02047138
0.01893533
0.01729037
0.01538108
0.0133418
0.01153409
0.01069422
0.01146939
0.01401114
0.0182331
0.02399909
0.03079995
0.03720296
0.04211185
0.04517463
0.04588385
0.04242755
0.02695881
0.08491858
0.07065858
0.06119016
0.05435016
0.04874078
0.04360986
0.03853997
0.03393742
0.03001285
0.0267839
0.02418086
0.02210018
0.02039993
0.0188686
0.01724495
0.01537921
0.01338597
0.01157523
0.01062918
0.01126554
0.01370889
0.01788989
0.02365444
0.03049495
0.03699425
0.04201635
0.04516137
0.04591928
0.04248434
0.02699288
0.08491705
0.07065409
0.06118021
0.05433106
0.04870935
0.04356387
0.03849042
0.03389125
0.02997218
0.0267465
0.02414297
0.02206041
0.02036619
0.01886924
0.01733549
0.01562292
0.01379658
0.01205531
0.0109633
0.0113641
0.01361494
0.01768779
0.02339012
0.03020315
0.0368002
0.04192268
0.04513061
0.0459217
0.04250137
0.02700358
0.08491838
0.07065734
0.0611863
0.05434177
0.048727
0.04359121
0.03851669
0.03391214
0.02998611
0.02675296
0.0241421
0.02205605
0.02037474
0.01893466
0.01753778
0.016047
0.01446057
0.01285808
0.01162893
0.01174474
0.01373977
0.01766115
0.0232764
0.03004161
0.0366831
0.04186154
0.04509876
0.04590276
0.04248863
0.02699671
0.08492247
0.07066787
0.06120725
0.05438113
0.04879105
0.04368648
0.03861173
0.03399262
0.03005005
0.02680199
0.02417965
0.02209029
0.02042682
0.01905236
0.0178017
0.01653672
0.01518958
0.01375044
0.01245847
0.01233147
0.01406752
0.01783379
0.02338709
0.03012789
0.03671923
0.04186014
0.04507386
0.04586503
0.04244721
0.02697252
0.08492875
0.07068419
0.06123935
0.05443909
0.04888479
0.04383481
0.0387548
0.03411919
0.0301571
0.02689076
0.02425522
0.0221636
0.02052094
0.01921206
0.01809474
0.0170251
0.01588327
0.0145977
0.01330892
0.01302184
0.01455046
0.01818238
0.02369398
0.0304203
0.03688279
0.04190447
0.04504638
0.04579988
0.04236873
0.02692584
0.08493604
0.07070395
0.06127965
0.05451351
0.04900335
0.04400575
0.03893513
0.03428593
0.03030304
0.02701692
0.02436766
0.02227461
0.02065388
0.01940734
0.0184077
0.01750239
0.01653087
0.01537652
0.01413147
0.01376133
0.01514381
0.01865503
0.02409038
0.03073621
0.03706406
0.04194769
0.04499194
0.045688
0.04223519
0.02684598
0.08494215
0.07072241
0.06131986
0.05458861
0.04912088
0.0441676
0.03912101
0.03447471
0.03048064
0.02717832
0.024516
0.02242154
0.02082229
0.01963419
0.01873965
0.01797585
0.017149
0.01610693
0.01492772
0.01453313
0.01582425
0.0192281
0.02455699
0.03107293
0.03724319
0.04196293
0.04488292
0.04550108
0.0420185
0.02671571
0.08494353
0.07073299
0.06135253
0.05465885
0.04924164
0.04433214
0.03932408
0.03469525
0.03069673
0.02737852
0.02470069
0.02260213
0.02102195
0.01988843
0.01909031
0.01845338
0.01775541
0.01681433
0.01571525
0.01533923
0.01658327
0.01989275
0.02509267
0.03143713
0.03740906
0.04192497
0.04468627
0.04520097
0.04167841
0.02650934
0.08493453
0.07072589
0.06136791
0.05471906
0.04937022
0.04452031
0.0395763
0.03497643
0.03097061
0.02762736
0.02492435
0.02281396
0.02124738
0.0201638
0.01945593
0.01893717
0.01835992
0.01751625
0.01651037
0.01618718
0.01742038
0.02064743
0.02569866
0.0318287
0.03754679
0.04180671
0.04436423
0.04473975
0.04116012
0.02618983
0.08490667
0.07068694
0.06135243
0.05476087
0.04950565
0.04475162
0.03991965
0.03535511
0.03132575
0.02793662
0.02519021
0.02305405
0.02149127
0.02045093
0.01982784
0.01942191
0.01896236
0.01821887
0.0173213
0.01708262
0.01833885
0.02149772
0.0263841
0.03225637
0.03765238
0.04159246
0.04388569
0.04406693
0.0403948
0.02570459
0.08484792
0.07059825
0.0612921
0.05477824
0.04964837
0.04504141
0.04039352
0.03585717
0.03177663
0.02831394
0.02549998
0.02331816
0.02174418
0.02073698
0.02019235
0.01989536
0.01955335
0.01891735
0.01814632
0.0180262
0.01934545
0.02246329
0.02718282
0.0327611
0.03776534
0.04131398
0.04326158
0.04315848
0.03931504
0.0249818
0.08474342
0.07044555
0.06118985
0.05479351
0.04983164
0.04540988
0.04096596
0.03646705
0.03232796
0.02876829
0.02585686
0.02360109
0.02199399
0.02100588
0.02053215
0.02034076
0.02011727
0.01959838
0.01897459
0.01901331
0.02045258
0.0235887
0.02817966
0.03346189
0.03803677
0.0411324
0.04263474
0.04210476
0.0379224
0.0239414
0.0845833
0.07024866
0.06112202
0.05493819
0.05022614
0.04604496
0.0418049
0.03732227
0.03307233
0.02934923
0.02627809
0.02390004
0.02222769
0.02124085
0.02083004
0.0207413
0.02063694
0.0202445
0.0197894
0.02003606
0.02168266
0.02496054
0.02955773
0.03464888
0.03885007
0.04149072
0.04246893
0.04133205
0.03650916
0.02259633
0.08439609
0.07016123
0.06138876
0.05562732
0.0513215
0.04746764
0.04343381
0.03881439
0.03423842
0.03016328
0.02679997
0.02421848
0.02243699
0.02143129
0.02107566
0.02108613
0.02109917
0.02083936
0.02057275
0.02108636
0.0230718
0.02672467
0.03165697
0.03690302
0.04098331
0.04331981
0.04383545
0.0420225
0.0362246
0.02151823
0.08437345
0.07076174
0.06287506
0.05792368
0.05425883
0.05080489
0.04680974
0.041571
0.03613422
0.03132782
0.02745595
0.0245632
0.02262486
0.0215816
0.021273
0.02137571
0.02149914
0.02137205
0.02130876
0.02215407
0.02466021
0.02908742
0.03505957
0.04136496
0.04584797
0.04821627
0.0486136
0.0465228
0.03996902
0.02316695
0.08530991
0.0738183
0.06784966
0.06432737
0.06168814
0.0588236
0.05449125
0.04665234
0.03902091
0.03285396
0.0282208
0.0249269
0.02280231
0.02170844
0.02143227
0.02160698
0.02182067
0.02181825
0.02196683
0.02319901
0.02642415
0.03220173
0.04063937
0.05065566
0.05611669
0.05867725
0.05939002
0.05804097
0.05246391
0.03371471
0.09012265
0.08421456
0.08174317
0.0804524