/*--------------------------------*- C++ -*----------------------------------*\
| =========                 |                                                 |
| \\      /  F ield         | OpenFOAM: The Open Source CFD Toolbox           |
|  \\    /   O peration     | Version:  2506                                  |
|   \\  /    A nd           | Website:  www.openfoam.com                      |
|    \\/     M anipulation  |                                                 |
\*---------------------------------------------------------------------------*/
FoamFile
{
    version     2.0;
    format      ascii;
    arch        "LSB;label=32;scalar=64";
    class       volScalarField;
    location    "450/airRegion";
    object      nut;
}
// * * * * * * * * * * * * * * * * * * * * * * * * * * * * * * * * * * * * * //

dimensions      [0 2 -1 0 0 0 0];

internalField   nonuniform List<scalar> 
85779
(
0.09218024
0.09255105
0.0923504
0.09212003
0.09187131
0.09143419
0.09026723
0.08661103
0.07580437
0.06866799
0.0669814
0.06731274
0.06954832
0.07360387
0.078712
0.08316889
0.08457176
0.08033371
0.07245116
0.06591935
0.06390401
0.0676385
0.07988027
0.08844568
0.0906476
0.09109823
0.09072207
0.08817731
0.07420095
0.02015475
0.09228571
0.09278411
0.092412
0.09189028
0.09128692
0.09030887
0.08810036
0.08266308
0.07414356
0.07019523
0.06857355
0.06869879
0.07062817
0.07429582
0.07899331
0.08313333
0.08445462
0.08045885
0.07280571
0.06646232
0.06457876
0.06764088
0.07515426
0.08493535
0.08840588
0.08915428
0.08840281
0.08455579
0.06887293
0.01893289
0.09210892
0.09234035
0.09175234
0.09101836
0.09017887
0.08882163
0.08563759
0.07877705
0.07410993
0.07133699
0.07000877
0.07009737
0.07174446
0.07491468
0.07899347
0.0825884
0.08368262
0.07992024
0.07245627
0.06605046
0.06377207
0.06589495
0.07187479
0.08254505
0.08636101
0.08719946
0.0864915
0.08294135
0.06863945
0.01913989
0.0920641
0.09210622
0.09134655
0.09045722
0.08944407
0.08778506
0.08395647
0.07643023
0.07308555
0.07128911
0.07051077
0.07080727
0.07235117
0.07512789
0.07860758
0.08160062
0.08237645
0.07875685
0.07134779
0.06469831
0.06196128
0.06355864
0.06935447
0.08121614
0.0851881
0.08610934
0.08559805
0.08258071
0.06944171
0.01930979
0.09208083
0.09203855
0.09117758
0.09018093
0.08900579
0.08693582
0.08216044
0.07515715
0.07221498
0.0708409
0.07042841
0.07092952
0.07244154
0.0749077
0.07783309
0.08020043
0.08058065
0.07702348
0.06962861
0.06278285
0.05984813
0.06144134
0.06764148
0.0805103
0.08462379
0.0856458
0.08532905
0.08271375
0.07025789
0.01942904
0.09210842
0.09203389
0.09111779
0.09005061
0.08875066
0.08624909
0.07993684
0.07408301
0.07139607
0.07031537
0.07014937
0.07077685
0.07222835
0.0743851
0.07674768
0.0784372
0.07833672
0.07478714
0.06745925
0.06059314
0.05777278
0.05969686
0.0664604
0.08011018
0.08436974
0.08549336
0.08532337
0.08293881
0.07066032
0.01951351
0.09213028
0.092043
0.09109445
0.08997332
0.08854654
0.08562159
0.07846462
0.07354945
0.07118049
0.07020072
0.07005962
0.07064306
0.07192573
0.07370681
0.07544493
0.07637023
0.07569361
0.07211347
0.06495347
0.0582756
0.05582297
0.058246
0.06557508
0.0798492
0.08425205
0.08546735
0.0854024
0.08315628
0.07094429
0.01957133
0.09214383
0.0920499
0.09108002
0.08991623
0.08837481
0.08507629
0.07749002
0.07347972
0.07136338
0.07034285
0.07010139
0.07054826
0.07159696
0.07294873
0.07399537
0.07406396
0.07272126
0.06908433
0.06220161
0.05590252
0.05399757
0.05699059
0.0648446
0.07964737
0.08418563
0.08548037
0.08549085
0.08333131
0.07114729
0.01961065
0.09215065
0.09205182
0.09106761
0.08987615
0.08826934
0.08478221
0.07674327
0.0730081
0.07113023
0.07021837
0.06999496
0.07037354
0.07122004
0.07214357
0.07246441
0.07161312
0.06954541
0.06583872
0.05931973
0.05354026
0.05229101
0.05586854
0.0641976
0.0794671
0.08413263
0.08549628
0.08556257
0.08345946
0.07128781
0.01963711
0.09215308
0.09204978
0.0910551
0.0898447
0.08819964
0.08462534
0.07633578
0.0726043
0.07081717
0.06998941
0.0698082
0.07015436
0.07083238
0.07135253
0.07095829
0.06918818
0.0663956
0.06261741
0.05649373
0.05129052
0.0507224
0.05485548
0.06360713
0.07929462
0.08407894
0.08550306
0.08561222
0.08354742
0.07138175
0.01965453
0.09215307
0.09204537
0.09104161
0.08981359
0.08813126
0.08448554
0.07607018
0.07232821
0.07058256
0.06980347
0.06964882
0.0699654
0.07049815
0.0706654
0.06963992
0.06705903
0.06362519
0.05977448
0.053995
0.0493033
0.04933863
0.0539533
0.06307036
0.07911665
0.08401938
0.08549867
0.08564217
0.08360438
0.07144214
0.01966567
0.09215204
0.09203984
0.09102613
0.08977262
0.08800978
0.08413455
0.07583584
0.07217778
0.07048252
0.06972969
0.06957643
0.06985359
0.07026661
0.07017044
0.06869054
0.06553325
0.06163212
0.05770938
0.05214558
0.0477631
0.0482076
0.05317653
0.06258546
0.07893334
0.08395357
0.08548463
0.08565683
0.08363878
0.07147907
0.01967246
0.09215086
0.09203424
0.09100839
0.08970872
0.08769341
0.08277199
0.07594011
0.07232159
0.07058297
0.06979115
0.06959781
0.06982263
0.07015269
0.06991825
0.06822963
0.06482301
0.06071684
0.05675911
0.0512487
0.04686082
0.04741297
0.0525479
0.0621352
0.07872547
0.08387432
0.0854613
0.0856601
0.0836573
0.07149999
0.01967635
0.09215
0.09203031
0.09099639
0.08967143
0.08764249
0.08312464
0.07576502
0.07231447
0.07062789
0.06983879
0.06962666
0.069825
0.07013806
0.06992209
0.06831305
0.0650413
0.06105875
0.0571426
0.05152106
0.0467662
0.04706213
0.05212234
0.06167997
0.0782226
0.08372627
0.08542121
0.08565401
0.08366475
0.07151022
0.0196783
0.09214968
0.09202871
0.09099194
0.08966044
0.08754277
0.08238975
0.07575526
0.07230688
0.07063999
0.06985337
0.06963319
0.06983568
0.07020881
0.07018422
0.06896974
0.06625
0.0627342
0.0589217
0.05301188
0.04756356
0.04727302
0.05206519
0.06132745
0.07545215
0.08329485
0.08534829
0.08564003
0.0836645
0.07151316
0.01967897
0.09214997
0.09202961
0.09099432
0.08966718
0.08763507
0.08311018
0.07571986
0.07227078
0.07059723
0.06981278
0.06960366
0.06984587
0.07035054
0.07066527
0.07010855
0.06828176
0.06550218
0.06184213
0.05548895
0.04909729
0.04793746
0.05229718
0.06122779
0.07611706
0.08318417
0.08530391
0.08562784
0.0836598
0.07151067
0.01967862
0.09215086
0.09203279
0.09100366
0.08969785
0.08767011
0.08270214
0.0758217
0.07223553
0.07053577
0.06975293
0.0695621
0.06986484
0.07054086
0.07126312
0.07147002
0.07067448
0.06876059
0.06529832
0.05840962
0.05097366
0.04876875
0.05258164
0.06140064
0.07723052
0.08336175
0.08532511
0.08562622
0.08365251
0.07150296
0.01967724
0.09215226
0.09203769
0.09101733
0.08974846
0.0879542
0.08405808
0.0757964
0.07220939
0.07051131
0.06971908
0.06954256
0.06991232
0.07076991
0.07189981
0.07284435
0.07303889
0.07197969
0.06874406
0.06133622
0.05292423
0.04969523
0.05293679
0.06178956
0.07826401
0.08367832
0.08539038
0.08563101
0.08364063
0.07148852
0.01967458
0.09215387
0.09204371
0.09103338
0.08979126
0.08807932
0.08439025
0.0759317
0.07222347
0.07049388
0.06970753
0.06956051
0.07000448
0.07103914
0.07254379
0.07414196
0.07520211
0.07489962
0.07187361
0.0640308
0.05487192
0.05086079
0.0536441
0.06236294
0.07869885
0.08383678
0.08542897
0.08562727
0.08361878
0.07146407
0.01967009
0.09215518
0.0920495
0.09104819
0.08982544
0.08815713
0.08454253
0.07615659
0.07240834
0.07062991
0.0698133
0.06966634
0.07016454
0.07135621
0.07319352
0.07535451
0.07714244
0.07746674
0.07459126
0.06639705
0.05672924
0.05215374
0.05450095
0.06292309
0.0789321
0.08392251
0.08544656
0.08561113
0.08358174
0.07142454
0.01966286
0.09215528
0.092054
0.09106164
0.08985583
0.08822128
0.08467013
0.07644971
0.07271296
0.07087435
0.06999855
0.06982935
0.07036946
0.07170705
0.07384786
0.07650045
0.07889775
0.07972023
0.0769125
0.06842953
0.05845493
0.05349675
0.05543597
0.06349544
0.07913325
0.08398882
0.08545148
0.08557987
0.08352306
0.07136266
0.01965149
0.09215276
0.09205593
0.09107432
0.08988868
0.08829635
0.0848465
0.07691241
0.07312284
0.07113692
0.0701608
0.06996652
0.07056234
0.0720584
0.07449644
0.077596
0.08051191
0.08171912
0.07889125
0.07017094
0.06005807
0.05486852
0.05643867
0.06410643
0.07934058
0.08405123
0.08544622
0.08552996
0.08343451
0.07126842
0.01963409
0.0921457
0.0920537
0.09108674
0.08993034
0.08840828
0.08516177
0.07768187
0.0735271
0.07124594
0.07016965
0.06999802
0.07069715
0.07238377
0.07512755
0.0786475
0.08201298
0.0835085
0.08058084
0.07167988
0.06157802
0.05628551
0.05752589
0.06477794
0.07955106
0.08411417
0.08543345
0.0854593
0.08330692
0.07112873
0.01960784
0.09213185
0.09204622
0.09110028
0.08998608
0.08857814
0.08570242
0.07863796
0.07361558
0.07110488
0.07007582
0.0700006
0.07082353
0.07269999
0.07573859
0.07965003
0.08340615
0.0851075
0.08201641
0.07300771
0.06306193
0.05778726
0.05873815
0.06554173
0.07977665
0.08419141
0.08542515
0.08537309
0.08313343
0.07092745
0.01956892
0.09210966
0.09203641
0.09112206
0.0900591
0.08877003
0.08629519
0.08005399
0.07420377
0.07144568
0.07032088
0.0701968
0.0710308
0.0730212
0.07630815
0.08057396
0.08466912
0.08650674
0.08320699
0.07417888
0.06454023
0.05942191
0.06014642
0.06646444
0.08006121
0.08432109
0.08545709
0.08529718
0.08291807
0.07064531
0.01951161
0.09208173
0.09204039
0.09118043
0.09018554
0.08901321
0.08694579
0.08218943
0.075269
0.07229302
0.070889
0.07052699
0.07123176
0.07325124
0.07674757
0.08134841
0.08575081
0.08767126
0.08413103
0.07516941
0.06599086
0.06121472
0.06185239
0.06768225
0.08048368
0.08458744
0.08561613
0.08530647
0.08269491
0.07024
0.01942775
0.09206469
0.09210748
0.0913484
0.09045937
0.08944399
0.08777596
0.08396905
0.07659324
0.07311945
0.07126023
0.07057047
0.07111042
0.07316415
0.07690252
0.08187133
0.08658267
0.08854975
0.0847359
0.07588517
0.06728471
0.06308855
0.06393605
0.06942714
0.0812094
0.0851636
0.08608654
0.08557954
0.08256464
0.06942592
0.019309
0.09210926
0.09234118
0.09175373
0.09102094
0.09018515
0.08883929
0.08569101
0.07879306
0.07389766
0.07106573
0.06992771
0.07035705
0.07255382
0.07664518
0.0820609
0.08710543
0.08909187
0.08495281
0.07616381
0.0681319
0.06470702
0.06624571
0.07197145
0.0825541
0.08634733
0.08718372
0.08647765
0.08292889
0.06862811
0.01913948
0.09228588
0.09278458
0.09241285
0.09189216
0.09129197
0.09031601
0.08806042
0.08241271
0.0743087
0.07008279
0.06847528
0.06894677
0.07145299
0.07601147
0.08192102
0.08729113
0.08926212
0.08474226
0.07586169
0.06815227
0.06536915
0.06797614
0.07526621
0.08495419
0.08840122
0.0891458
0.0883945
0.08454776
0.06886562
0.01893274
0.09218027
0.09255115
0.0923506
0.09212059
0.09187351
0.09144098
0.09027017
0.08643375
0.07474801
0.06862742
0.06669345
0.06745277
0.07035852
0.07531133
0.08155422
0.08710131
0.08899636
0.0841462
0.07508983
0.06735391
0.06459808
0.06796043
0.07997168
0.0884594
0.09064815
0.09109636
0.09071979
0.0881748
0.07419838
0.02015474
0.09228572
0.09278411
0.09241197
0.09189021
0.09128634
0.09029944
0.0880243
0.0823656
0.07429763
0.07022774
0.06857212
0.06871173
0.0706592
0.07435088
0.07909006
0.08328611
0.08465141
0.08065605
0.07296006
0.06655661
0.06462401
0.06765689
0.07515723
0.08493646
0.08840623
0.08915439
0.08840279
0.08455567
0.06887272
0.01893288
0.09172564
0.09311257
0.09345905
0.09289669
0.09175588
0.0898833
0.08659274
0.08133898
0.07589048
0.07223465
0.07035355
0.07016047
0.07173701
0.07501479
0.07933232
0.08320143
0.08447443
0.08072185
0.07327279
0.06701238
0.06513043
0.06786821
0.07392631
0.0807844
0.08460657
0.08534795
0.08310512
0.07540267
0.05487483
0.01432819
0.09096695
0.09183964
0.09232026
0.09186061
0.09060649
0.08849163
0.08501868
0.08077131
0.07671429
0.07369323
0.07194385
0.0716097
0.07283942
0.07558772
0.07927075
0.08257961
0.08360963
0.08010103
0.07292296
0.06669499
0.06453281
0.06657716
0.0714424
0.07714404
0.08058901
0.08109086
0.07836907
0.07017295
0.05050358
0.01374691
0.0906545
0.0909389
0.09103805
0.09034522
0.08890085
0.08664144
0.08314218
0.07941925
0.07627175
0.07394553
0.07258477
0.0723577
0.0734242
0.07574706
0.07881151
0.08149713
0.08218704
0.07883186
0.07180563
0.06543219
0.06284212
0.06426243
0.06847057
0.07383516
0.07719355
0.07781164
0.07547726
0.06822933
0.05021952
0.01411012
0.09057869
0.09056251
0.09032671
0.08934473
0.08765358
0.08517945
0.0817482
0.07819838
0.0754303
0.07352928
0.07250811
0.0724527
0.07346187
0.07545633
0.07794684
0.07997767
0.08024222
0.07695141
0.07001548
0.0634854
0.06061536
0.06179326
0.06594871
0.07157056
0.07515336
0.07612745
0.07442848
0.0682233
0.05134831
0.0144778
0.09058171
0.09044669
0.09001736
0.08882556
0.08691783
0.08417253
0.08057437
0.07708557
0.07454388
0.07292004
0.07213577
0.07220603
0.073157
0.07483813
0.07674435
0.07805728
0.0778026
0.07451437
0.06769975
0.06115023
0.05828921
0.05961533
0.06410173
0.07022725
0.074167
0.07553845
0.0743881
0.06890833
0.05256941
0.0147377
0.09059978
0.09042152
0.08988874
0.08855975
0.08648259
0.08347439
0.07977555
0.07643586
0.07404143
0.07253585
0.07183108
0.07190813
0.07272446
0.07403681
0.07528817
0.07577936
0.07490173
0.07158021
0.06498136
0.05861755
0.056056
0.05779776
0.06277813
0.06944694
0.07374686
0.07546251
0.07471089
0.06968357
0.05357754
0.01491233
0.09061364
0.09041712
0.08982592
0.08840742
0.08620349
0.08296703
0.07923904
0.07609665
0.07380801
0.07233729
0.07162593
0.07163688
0.07225895
0.07313935
0.07364345
0.07319278
0.07159565
0.06822928
0.0619652
0.05599604
0.0539657
0.05626938
0.06177926
0.06895044
0.07356536
0.07555511
0.07508101
0.07033343
0.05432759
0.01502861
0.0906202
0.09041212
0.08978549
0.08831154
0.08602656
0.08262997
0.07875159
0.07566732
0.07347762
0.07207796
0.07139114
0.07135146
0.07177641
0.07219283
0.07187419
0.07038394
0.06800701
0.06460902
0.05878481
0.05337543
0.05202683
0.05494928
0.06096536
0.06857003
0.07345546
0.07566194
0.07538355
0.07081472
0.05485492
0.01510554
0.09062103
0.09040237
0.08975147
0.08824182
0.0859081
0.08241229
0.0784204
0.07531539
0.07316416
0.07181447
0.07115446
0.07107546
0.07131331
0.0712628
0.07009608
0.06754209
0.06439467
0.060992
0.05565371
0.05087734
0.05025869
0.05378575
0.06025882
0.06823478
0.07335177
0.07573094
0.07559507
0.07114616
0.05521221
0.01515561
0.09061836
0.09038861
0.08971758
0.0881792
0.08580941
0.08224278
0.07818945
0.07506809
0.07293548
0.07161519
0.07096996
0.07085216
0.07092132
0.07044895
0.06851464
0.06501337
0.0611964
0.05779518
0.05288537
0.04867529
0.04870737
0.05275676
0.05961496
0.06790326
0.07323696
0.07575486
0.07572608
0.07136143
0.05544622
0.01518734
0.09061408
0.0903726
0.08968144
0.08811228
0.08570063
0.08207613
0.0780298
0.07493101
0.07281989
0.07151384
0.07086654
0.07070717
0.07064277
0.06985997
0.06737868
0.06321353
0.05891065
0.05548235
0.05084636
0.04697942
0.04744704
0.05187401
0.0590277
0.06757131
0.07310882
0.07574092
0.07579552
0.07149236
0.05559317
0.01520662
0.09060964
0.09035675
0.08964484
0.08804076
0.08558251
0.08203923
0.07805561
0.07496116
0.07283753
0.07151279
0.07083946
0.07063718
0.0704915
0.06955697
0.06683471
0.06239041
0.05787501
0.05442268
0.0498705
0.04600181
0.04657242
0.05117537
0.05851016
0.0672442
0.07296259
0.07569674
0.07582078
0.07156425
0.05567955
0.01521759
0.09060642
0.09034537
0.08961837
0.08798961
0.08551241
0.08193203
0.07800359
0.07495262
0.07284655
0.07151955
0.07083044
0.07060838
0.0704567
0.06955879
0.06694158
0.06265759
0.05827706
0.05484922
0.05018908
0.04592442
0.04619567
0.0507291
0.05808709
0.0668884
0.07277924
0.07562516
0.07581485
0.07159549
0.05572383
0.01522308
0.09060511
0.09034058
0.08960749
0.08796853
0.08546463
0.08188931
0.07797291
0.07494257
0.07284564
0.07151422
0.07081651
0.07060386
0.07053296
0.06988146
0.0677578
0.06412234
0.06023198
0.05684183
0.05185171
0.04682961
0.04641312
0.05064599
0.0578731
0.06652083
0.07254748
0.07553412
0.07578949
0.07159911
0.05573812
0.01522489
0.090606
0.09034327
0.08961301
0.08797927
0.08549542
0.08190413
0.07796807
0.0749203
0.07281662
0.07148361
0.07079125
0.07061986
0.07070784
0.07048346
0.06919035
0.06662177
0.06350388
0.06015726
0.05462867
0.04857279
0.04714774
0.05088038
0.05788774
0.06639105
0.07241279
0.07547061
0.07576242
0.07158497
0.05572962
0.01522386
0.09060889
0.09035255
0.08963349
0.08801784
0.08554211
0.0819676
0.07798018
0.07490507
0.07278962
0.07145249
0.07077178
0.07066082
0.07094581
0.07121729
0.0708661
0.06952096
0.06732875
0.06408952
0.05792765
0.05076872
0.04817764
0.05125883
0.05803391
0.06652549
0.07247906
0.07548007
0.07574698
0.07155705
0.0556999
0.01522001
0.09061328
0.09036662
0.08966366
0.08807692
0.08565223
0.08204665
0.07803033
0.07493751
0.07279983
0.07145062
0.07078207
0.07073821
0.0712232
0.0719676
0.0724861
0.07228127
0.07101158
0.06796217
0.06121774
0.0530578
0.04936925
0.05177043
0.05830703
0.06683859
0.07269164
0.07554317
0.07573444
0.0715088
0.05564324
0.01521255
0.09061851
0.09038383
0.08970041
0.0881423
0.0857491
0.0821552
0.07809343
0.07497272
0.07282772
0.07148334
0.0708376
0.07086428
0.07153601
0.0726955
0.07395096
0.07471257
0.07426065
0.07142302
0.06420782
0.05527626
0.05073558
0.05256196
0.05883764
0.06723138
0.07288229
0.07559094
0.07569866
0.07142432
0.05554687
0.01519988
0.09062327
0.0904006
0.08973658
0.08820626
0.08584645
0.08230558
0.0782658
0.07513581
0.0729711
0.07161179
0.07097224
0.07105579
0.07189154
0.07340679
0.07527354
0.07682641
0.0770514
0.07438682
0.06679915
0.05733449
0.05219239
0.05352005
0.05946322
0.06759577
0.07302708
0.07560346
0.07562088
0.07128387
0.05539222
0.01517936
0.09062612
0.09041469
0.08977082
0.08826933
0.08594704
0.08248154
0.07851605
0.0754014
0.07321026
0.07181912
0.07117154
0.07130178
0.07228578
0.07411385
0.07649686
0.07869746
0.07946071
0.07689515
0.06900307
0.05921045
0.05368197
0.05458059
0.0601495
0.06795832
0.07314449
0.07557589
0.0754839
0.07106235
0.05515323
0.01514695
0.0906252
0.09042439
0.08980548
0.08834183
0.08607319
0.08271759
0.07886875
0.07574965
0.07349566
0.07205118
0.07139083
0.07157095
0.07270221
0.07482067
0.07765633
0.08039636
0.08157638
0.07902461
0.07087985
0.06093314
0.05519678
0.05573283
0.06090502
0.06834424
0.07325092
0.07550602
0.07527021
0.07072843
0.05479399
0.01509682
0.09061826
0.09042878
0.08984589
0.08843976
0.086256
0.08306633
0.07934761
0.07612824
0.07375543
0.07225115
0.07159278
0.0718393
0.07312586
0.07552409
0.07876939
0.08196693
0.08346102
0.08084267
0.07249957
0.06255663
0.0567666
0.05700309
0.06175795
0.06877294
0.07337275
0.07540464
0.07497015
0.0702485
0.0542677
0.01502042
0.09060378
0.09043172
0.08990647
0.08858911
0.08653145
0.08356658
0.07987268
0.07647157
0.07400976
0.07247958
0.0718305
0.07213361
0.07355966
0.07621623
0.07983283
0.08342118
0.08514225
0.08239026
0.07391672
0.06413345
0.05844177
0.05845577
0.06278279
0.0693121
0.07357769
0.07532413
0.0746067
0.06960321
0.05352117
0.01490512
0.09058492
0.0904549
0.09003128
0.08884775
0.08695411
0.08423933
0.0806658
0.07716557
0.07458589
0.07294112
0.07220305
0.07247919
0.07398521
0.07686104
0.08081287
0.08473818
0.08661332
0.0836756
0.0751499
0.06568495
0.06026835
0.06019161
0.064132
0.07013577
0.07402638
0.07541617
0.07429331
0.0688345
0.05251807
0.01473177
0.09058112
0.0905688
0.09033709
0.08936013
0.08767648
0.08521876
0.08181378
0.07828059
0.07549244
0.07358105
0.07261238
0.07275849
0.0742866
0.07735966
0.08163514
0.08586687
0.08783936
0.08467269
0.07616153
0.06715898
0.06222863
0.06229105
0.06600138
0.07151424
0.07504143
0.07602297
0.07434441
0.06815654
0.05130118
0.01447327
0.09065626
0.09094364
0.09104587
0.0903564
0.08891699
0.08667228
0.0832287
0.07950474
0.07630111
0.07396264
0.07267621
0.07266801
0.07424017
0.07755782
0.08219809
0.08673975
0.08876938
0.08532543
0.07684466
0.06838324
0.06414638
0.06469127
0.068541
0.07380511
0.07710904
0.07772643
0.07540565
0.06817116
0.05017887
0.01410689
0.09096817
0.09184311
0.0923263
0.09187034
0.09062297
0.08852055
0.08506737
0.08074673
0.07661559
0.07360411
0.07197751
0.07190414
0.07364751
0.07733255
0.0824227
0.08729968
0.08935526
0.08556916
0.07704592
0.06905942
0.06559059
0.06695351
0.07152895
0.07713471
0.08053199
0.08102851
0.07831419
0.07012672
0.05047101
0.01374475
0.09172635
0.09311462
0.09346274
0.09290319
0.09176823
0.08990559
0.08661814
0.0813805
0.0759287
0.0722001
0.07039144
0.07046296
0.07255614
0.0767253
0.08231402
0.08751911
0.08956413
0.08537829
0.07667443
0.06892169
0.0660036
0.06821227
0.07403081
0.08079582
0.08457698
0.0853125
0.08307284
0.07537403
0.05485326
0.01432701
0.09228589
0.09278459
0.09241287
0.09189208
0.09129092
0.09030869
0.08802019
0.08228611
0.0743192
0.07018744
0.06856677
0.06900163
0.07148731
0.07604522
0.08196659
0.08735078
0.08932777
0.08479702
0.07589854
0.06817123
0.06537786
0.06797974
0.07526736
0.08495516
0.08840142
0.08914582
0.08839443
0.08454763
0.06886545
0.01893273
0.09210895
0.0923404
0.09175234
0.09101806
0.09017716
0.08881598
0.08565026
0.07870662
0.07377382
0.07106192
0.06990248
0.0701025
0.07181197
0.07505176
0.07924828
0.08300089
0.0842223
0.08047138
0.07289499
0.06632108
0.06389982
0.06593818
0.0718806
0.08254333
0.08635911
0.08719816
0.08649072
0.08294086
0.06863907
0.01913989
0.09096701
0.09183977
0.09232037
0.09186071
0.09060718
0.08849578
0.08503638
0.08069788
0.07658577
0.07360679
0.0719188
0.07162425
0.07288154
0.07567178
0.0794307
0.08284186
0.08395565
0.08045874
0.07321263
0.06687723
0.06462042
0.06660892
0.0714511
0.07714869
0.08058884
0.08108934
0.07836762
0.07017185
0.05050295
0.01374689
0.08981126
0.08977806
0.09066379
0.09100468
0.09035153
0.08863391
0.08569883
0.08209536
0.07854211
0.07565974
0.07378853
0.07316292
0.07396485
0.07616901
0.07926018
0.08207833
0.08291931
0.07968552
0.07286407
0.06678262
0.06449714
0.06607557
0.06992495
0.07402591
0.07629013
0.07583173
0.0716682
0.06165141
0.04196109
0.01139779
0.08930436
0.08835502
0.08869025
0.08895761
0.0884947
0.08708615
0.08465492
0.08171087
0.07878211
0.0763089
0.07461562
0.07395562
0.07450849
0.07623932
0.07867799
0.08083331
0.08129655
0.07823109
0.07172002
0.06570162
0.06315053
0.06414753
0.06714411
0.07031239
0.07193555
0.07111719
0.06680575
0.05712203
0.03889337
0.01098657
0.08914627
0.08773599
0.0875355
0.08739822
0.08672073
0.08527121
0.08305623
0.08048063
0.07799705
0.07593172
0.07453089
0.0739969
0.07445967
0.07583779
0.07767101
0.07912316
0.079114
0.07611592
0.06981939
0.06376611
0.0609347
0.06150826
0.06406037
0.06692754
0.06850187
0.06795338
0.06429125
0.05572089
0.03884417
0.01125993
0.089116
0.08752858
0.08702458
0.08656008
0.08560789
0.08395315
0.08168197
0.07921887
0.07697022
0.07517968
0.07401652
0.07361342
0.07402287
0.07507975
0.07629169
0.07696128
0.07637519
0.07337506
0.06728923
0.06126542
0.05835905
0.05887184
0.06146841
0.06455733
0.06648163
0.06649737
0.06365725
0.05611273
0.03999124
0.01159182
0.08912033
0.08747352
0.08682072
0.08615558
0.08499491
0.08313296
0.08076018
0.0783197
0.0761701
0.07451263
0.0734707
0.07311931
0.07342457
0.07410787
0.07460711
0.07436219
0.07308609
0.07005528
0.06426149
0.05844557
0.05576226
0.05656959
0.05954958
0.06312141
0.06553124
0.06612454
0.06396985
0.05713092
0.04130943
0.01184259
0.08912803
0.08745996
0.08673225
0.08595012
0.0846511
0.08262552
0.08016454
0.0777283
0.07562131
0.07402006
0.07302194
0.07265461
0.07279221
0.07301635
0.07266497
0.07134191
0.06927544
0.06623125
0.060861
0.05547243
0.05329435
0.05464054
0.05815895
0.06227322
0.06514797
0.06621774
0.06455783
0.05815899
0.04241311
0.01201391
0.08913145
0.08745114
0.08668065
0.08582919
0.08444312
0.08230115
0.07973973
0.07727445
0.0751865
0.07362188
0.0726475
0.07224084
0.07217337
0.07185987
0.07051357
0.06796102
0.06505348
0.06206065
0.05724808
0.05247837
0.0510072
0.05301028
0.05709121
0.0617007
0.06498925
0.06642367
0.065107
0.05898129
0.04323026
0.01212737
0.0891304
0.08743833
0.08663852
0.08574274
0.08430171
0.08208262
0.07944516
0.07694087
0.07485249
0.073308
0.07234617
0.07189157
0.07160341
0.07070756
0.0682751
0.06442964
0.06072132
0.05786477
0.05367912
0.04962187
0.04893684
0.05160637
0.05620772
0.06124572
0.06488683
0.06659451
0.06551797
0.0595695
0.04379769
0.01220092
0.08912649
0.08742155
0.08659765
0.08566857
0.08418278
0.08191384
0.07923114
0.07670212
0.07461253
0.07308037
0.0721236
0.07162037
0.07112496
0.06968348
0.06623674
0.06123452
0.05686426
0.05416223
0.05053138
0.047115
0.04713914
0.05039112
0.05543488
0.0608336
0.06477539
0.06669
0.06578626
0.05995995
0.04417418
0.01224728
0.08912135
0.08740299
0.0865567
0.08559785
0.08407414
0.08177413
0.07907725
0.07654565
0.0744613
0.07293652
0.07197744
0.0714311
0.07077841
0.0689435
0.06478933
0.05900264
0.05415184
0.05150999
0.04823148
0.04520191
0.04569514
0.04936728
0.05475147
0.06044178
0.06463936
0.06671404
0.06593889
0.06020138
0.04441254
0.01227529
0.08911634
0.08738556
0.08651864
0.08553241
0.08397788
0.08168459
0.07900166
0.0764765
0.07439311
0.07286422
0.07189246
0.07131261
0.0705767
0.06856373
0.06411444
0.05801312
0.05295183
0.05030501
0.04714496
0.04411683
0.04470575
0.04857344
0.05417344
0.06007785
0.06448169
0.06668319
0.06600727
0.06033676
0.04455365
0.01229109
0.08911275
0.08737314
0.08649141
0.08548491
0.08390821
0.08160776
0.07893699
0.07642581
0.07434988
0.07281844
0.07183539
0.0712434
0.07051492
0.06856267
0.06425237
0.05834521
0.05343722
0.05078537
0.04751555
0.0440564
0.04428726
0.04807873
0.05374329
0.05976148
0.06431235
0.06661543
0.06601832
0.06039889
0.04462683
0.01229889
0.08911129
0.08736798
0.08648002
0.08546527
0.08387797
0.08157348
0.07890727
0.07640161
0.07432518
0.07278595
0.07179365
0.07121709
0.07060034
0.06898254
0.06532332
0.06019492
0.05578901
0.0530589
0.049398
0.04510987
0.04453047
0.04796313
0.0535356
0.05955147
0.06415999
0.06653419
0.06599503
0.0604112
0.04465157
0.01230134
0.08911226
0.08737097
0.08648593
0.08547465
0.08389194
0.08158544
0.07891084
0.07639688
0.07431268
0.0727642
0.07176935
0.07123723
0.07082572
0.06978883
0.06726715
0.06346911
0.0598318
0.0569291
0.05256306
0.04714086
0.04539282
0.04821143
0.05355727
0.05948855
0.06407845
0.06647498
0.06595922
0.06038935
0.0446392
0.01229977
0.08911545
0.08738137
0.0865076
0.08551113
0.08394361
0.08163775
0.07895134
0.0764241
0.07432617
0.07276631
0.07177439
0.07130386
0.07113394
0.07074792
0.0694832
0.06721327
0.06454362
0.06155817
0.05637856
0.04976018
0.0466982
0.04872778
0.05375049
0.05956723
0.06410543
0.06646368
0.06592236
0.06033805
0.04459175
0.01229424
0.08912036
0.08739742
0.08654071
0.08556673
0.08402792
0.08173105
0.07903759
0.07649508
0.07437973
0.07280786
0.07182293
0.07141918
0.0714801
0.07167652
0.07150154
0.07060284
0.06893037
0.06604889
0.06016405
0.05249013
0.04823856
0.04946098
0.05410702
0.05977257
0.06422069
0.06648516
0.06587255
0.06024632
0.04450008
0.01228357
0.08912628
0.0874171
0.08658168
0.08563448
0.08412583
0.08183775
0.07913968
0.07659176
0.07447135
0.07289755
0.07192663
0.07158956
0.07185376
0.07252986
0.0732231
0.0734409
0.07266392
0.06998308
0.06356324
0.05507562
0.04990009
0.05041929
0.05467194
0.06010803
0.06436542
0.06649353
0.06577886
0.06008872
0.04434411
0.0122653
0.08913198
0.08743694
0.0866242
0.08570646
0.08423523
0.08198051
0.0793049
0.07676568
0.07464293
0.07306469
0.07210402
0.07182576
0.07226382
0.0733305
0.07470783
0.07580935
0.07577766
0.0732978
0.06647592
0.05741746
0.0515995
0.05153674
0.05537072
0.06049671
0.06449635
0.0664548
0.06560831
0.05983078
0.04409434
0.01223546
0.08913612
0.08745429
0.08666602
0.08578223
0.08435373
0.08215383
0.07952937
0.07701691
0.07489617
0.07331056
0.07235531
0.07212829
0.07271796
0.07411182
0.0760421
0.07784736
0.0784112
0.0760758
0.0689355
0.05951554
0.05330222
0.05277205
0.05617099
0.06092235
0.06460482
0.06634945
0.06532833
0.05942957
0.04371034
0.01218806
0.08913708
0.08746702
0.08670855
0.0858706
0.08449954
0.08238107
0.07983302
0.07735256
0.07522739
0.07362676
0.07267167
0.07249054
0.07321729
0.07489667
0.07729121
0.0796684
0.08069684
0.07842696
0.0710244
0.06142383
0.05502485
0.0541321
0.05708845
0.06140822
0.06471031
0.06617582
0.06491287
0.05883692
0.04313973
0.01211434
0.08913329
0.087475
0.08675935
0.08599175
0.08470934
0.08270882
0.08025289
0.07778911
0.07564207
0.07401512
0.07305269
0.07290949
0.07375925
0.07569317
0.07848939
0.0813405
0.08272332
0.08043879
0.07282602
0.06321288
0.05681737
0.05566921
0.05818885
0.06202498
0.06488165
0.06597632
0.06436687
0.05801634
0.04232366
0.01200154
0.08912495
0.08748682
0.08684496
0.08619321
0.08504791
0.0832104
0.08084215
0.07838107
0.07620161
0.07452864
0.07353027
0.07339373
0.07433607
0.07649057
0.07963831
0.08288681
0.08453104
0.0821602
0.07439628
0.06493552
0.0587353
0.05747282
0.05960629
0.06293403
0.06528845
0.06589815
0.0637884
0.05699485
0.04122454
0.01183156
0.08911981
0.08753967
0.08704469
0.08659087
0.08565076
0.08401603
0.08175858
0.079293
0.07702907
0.0752315
0.07411496
0.07391529
0.07489992
0.07723962
0.08070168
0.08429011
0.08611802
0.08359862
0.07574271
0.06658927
0.06079372
0.059633
0.06153737
0.06442256
0.0662681
0.0662913
0.06348908
0.0559859
0.03991285
0.01158253
0.0891493
0.08774498
0.08755184
0.08742279
0.08675411
0.08531942
0.08312038
0.0805516
0.07806216
0.07599848
0.07465068
0.07431552
0.07531011
0.07782966
0.08160207
0.08550082
0.08745093
0.08472306
0.07680793
0.06807237
0.06288605
0.06212738
0.06412635
0.06682692
0.06831881
0.06777092
0.06413884
0.05560444
0.03877237
0.01125244
0.08930675
0.08836232
0.08870367
0.08897775
0.08852218
0.08712691
0.08471553
0.0817716
0.07883176
0.07636349
0.07473191
0.07427403
0.07533308
0.07810262
0.08223844
0.08645426
0.08848122
0.08547482
0.07746936
0.06915732
0.06469754
0.06464336
0.06720244
0.07023469
0.07178668
0.07096471
0.06667497
0.05701977
0.03882981
0.0109807
0.08981313
0.08978383
0.09067438
0.09102095
0.09037487
0.08866792
0.08573652
0.08213062
0.07856995
0.07569362
0.07389068
0.07347409
0.0747691
0.07793745
0.08253499
0.08709736
0.08916555
0.0857958
0.07758594
0.0695468
0.06572496
0.06648163
0.06998611
0.0739755
0.07618452
0.07572041
0.07157044
0.06157225
0.04190995
0.01139357
0.09096825
0.09184339
0.09232692
0.09187175
0.0906257
0.08852227
0.08505404
0.08080088
0.0767426
0.07372686
0.07205871
0.07195182
0.07368461
0.07738042
0.08249519
0.08739893
0.08946875
0.08567039
0.07711941
0.0691001
0.0656082
0.06695959
0.07153062
0.07713569
0.08053103
0.08102717
0.07831288
0.07012553
0.05047013
0.01374466
0.09210929
0.09234129
0.09175408
0.09102228