/*--------------------------------*- C++ -*----------------------------------*\
| =========                 |                                                 |
| \\      /  F ield         | OpenFOAM: The Open Source CFD Toolbox           |
|  \\    /   O peration     | Version:  2506                                  |
|   \\  /    A nd           | Website:  www.openfoam.com                      |
|    \\/     M anipulation  |                                                 |
\*---------------------------------------------------------------------------*/
FoamFile
{
    version     2.0;
    format      ascii;
    arch        "LSB;label=32;scalar=64";
    class       surfaceScalarField;
    location    "450/airRegion";
    object      phi;
}
// * * * * * * * * * * * * * * * * * * * * * * * * * * * * * * * * * * * * * //

dimensions      [1 0 -1 0 0 0 0];

oriented        oriented;

internalField   nonuniform List<scalar> 
257196
(
0.01085206
0.0007314009
0.000731357
0.01057308
0.001078243
0.001078139
0.01024563
0.001121913
0.001121904
0.01000167
0.001098175
0.001099051
0.01003491
0.001142539
0.001144262
0.01069246
0.001321488
0.001344677
0.01309534
0.001274497
0.001401964
0.02142357
-0.001759146
-0.002140029
0.03518996
-0.00687363
-0.00694406
0.0450448
-0.01111276
-0.01098495
0.05091305
-0.01735889
-0.01721661
0.05290393
-0.02532406
-0.02515418
0.0506993
-0.03489856
-0.03466608
0.04405773
-0.04565712
-0.04532524
0.0331151
-0.05650166
-0.05602343
0.01861789
-0.06550101
-0.06484941
0.002038342
-0.06994218
-0.0691625
-0.01353455
-0.06660477
-0.065841
-0.02482725
-0.05546352
-0.05485855
-0.03005785
-0.04032576
-0.03990343
-0.02859721
-0.02538761
-0.02511462
-0.02081265
-0.0135997
-0.01362971
-0.01300162
-0.004080289
-0.003982064
-0.009561667
0.001226615
0.001401508
-0.008392404
0.002766773
0.00279152
-0.00793071
0.003723073
0.003734049
-0.007569251
0.004666475
0.004672043
-0.00680055
0.005599431
0.005601914
-0.004701532
0.005898465
0.005899437
0.0004485212
0.0004486759
0.01964149
0.0006505005
0.002268411
0.01947219
0.001059342
0.003342776
0.01923462
0.001157883
0.003417655
0.01913898
0.001137632
0.003095414
0.01952472
0.001121388
0.002528706
0.02095007
0.001187364
0.001434502
0.02456902
0.0007692444
-0.001034526
0.03230615
-0.003987517
-0.005499919
0.04238195
-0.009710748
-0.009532118
0.05005906
-0.01382787
-0.01345501
0.05448934
-0.01898948
-0.02000908
0.05543886
-0.02552474
-0.02840485
0.05247552
-0.03338161
-0.03835783
0.04530695
-0.04223721
-0.04935755
0.03403427
-0.05120746
-0.06027767
0.01936426
-0.05866583
-0.06923829
0.002743513
-0.06227311
-0.07363617
-0.01299962
-0.05932651
-0.07031794
-0.02487551
-0.04980495
-0.05905029
-0.03122012
-0.03698811
-0.04349615
-0.03183368
-0.02427916
-0.02774247
-0.02797426
-0.01369483
-0.01480933
-0.02137717
-0.005206832
-0.006020199
-0.01694543
0.0001871164
0.0008627077
-0.01478279
0.002121847
0.00656694
-0.01360294
0.003352755
0.01023821
-0.01246578
0.004365156
0.01342724
-0.01045102
0.005164031
0.01708008
-0.005485859
0.005142558
0.0219294
0.0002059007
0.02924173
0.02360013
0.0004971788
0.00360793
0.02358453
0.0008818644
0.005443817
0.02357862
0.001020655
0.00557938
0.02383039
0.001043092
0.004903508
0.02480861
0.001059382
0.003560358
0.02748158
0.001066151
0.00098093
0.03399028
-0.000320565
-0.004741944
0.04365807
-0.004971844
-0.008709516
0.05113739
-0.009939413
-0.01105545
0.05649347
-0.01427034
-0.0162118
0.05926073
-0.01900415
-0.02350932
0.05891234
-0.02462053
-0.03255693
0.05496943
-0.03122122
-0.04307204
0.04712372
-0.03859855
-0.0544771
0.03543625
-0.04605908
-0.0656428
0.02054456
-0.05225093
-0.07473766
0.00379086
-0.05516353
-0.07920468
-0.01221596
-0.05249703
-0.07588838
-0.02467932
-0.04418795
-0.06432504
-0.03199658
-0.0331111
-0.04815778
-0.0338838
-0.02209701
-0.03144975
-0.03096126
-0.01275737
-0.01738285
-0.02438705
-0.005372129
-0.00781364
-0.01946519
-0.0002931937
0.001393531
-0.01676676
0.001680034
0.01034814
-0.0149383
0.002931829
0.01671588
-0.01296168
0.003887604
0.02245191
-0.009805559
0.004524492
0.02906346
-0.00316855
0.004389043
0.03769017
0.0009889282
0.04983594
0.0254731
0.0003456106
0.004634791
0.02552044
0.0006574161
0.007163391
0.02569909
0.0008045823
0.007397542
0.02631754
0.0008664968
0.006389801
0.02794456
0.0009826356
0.004253857
0.03151186
0.001245943
0.0004351375
0.03937338
-0.001365449
-0.006803202
0.05002792
-0.005998119
-0.01135604
0.05741475
-0.009852365
-0.01372902
0.06189098
-0.01374114
-0.01939413
0.06362714
-0.01802427
-0.02728422
0.06230198
-0.02293631
-0.03691468
0.05754121
-0.02857969
-0.04791116
0.04909355
-0.0348087
-0.0596421
0.03702307
-0.04107391
-0.0709909
0.02191756
-0.04624869
-0.08018393
0.005025896
-0.04859269
-0.08470945
-0.01122698
-0.04611666
-0.08141734
-0.02413952
-0.03873137
-0.06961671
-0.03206066
-0.0290418
-0.05294982
-0.03453303
-0.01947036
-0.0353852
-0.03184806
-0.01137874
-0.02012252
-0.02510239
-0.005047627
-0.009094485
-0.01977931
-0.000486476
0.002284824
-0.01667726
0.001336326
0.01392945
-0.01437062
0.002468835
0.02273119
-0.01187705
0.00328784
0.03080624
-0.008278003
0.003760353
0.03977348
-0.001300691
0.003566058
0.05055151
0.001095551
0.06361218
0.02638911
0.0002252597
0.005351719
0.02644441
0.0004531119
0.00843069
0.02675401
0.0005799067
0.008773981
0.02773096
0.0006429721
0.007491056
0.03041543
0.0006335428
0.004546886
0.03670973
0.0002781396
-0.001225685
0.04614373
-0.001231266
-0.008590482
0.05520918
-0.005298477
-0.01238691
0.06198073
-0.009180704
-0.01621815
0.06597878
-0.01276526
-0.02263608
0.06710272
-0.01655779
-0.03108728
0.06513591
-0.02083853
-0.04119485
0.05980369
-0.02568089
-0.05253898
0.05092228
-0.03096751
-0.06446822
0.03857339
-0.03625375
-0.07590191
0.02330762
-0.04059029
-0.08513458
0.006301947
-0.04245587
-0.08969576
-0.01014552
-0.04011428
-0.08644047
-0.02334564
-0.03349359
-0.07447613
-0.03157216
-0.02501833
-0.0574656
-0.03425929
-0.01677445
-0.03921817
-0.03159079
-0.009891938
-0.02283471
-0.02469605
-0.00455864
-0.01024492
-0.01912913
-0.0005695614
0.003089101
-0.01575282
0.001024199
0.01693486
-0.01316141
0.001983904
0.0278091
-0.01045082
0.002645333
0.03779106
-0.006826064
0.002981834
0.04840124
-4.329798e-06
0.002767372
0.06027166
0.0009452309
0.0729726
0.02684809
0.0001402566
0.005817612
0.02688839
0.0002962705
0.009286412
0.02726454
0.0003990531
0.009714168
0.02843828
0.0004744079
0.008203748
0.03120041
0.0005872796
0.004718079
0.03667673
0.0007170597
-0.001566293
0.04641501
-0.00220368
-0.009877751
0.05766893
-0.006069177
-0.01504349
0.06496735
-0.008831057
-0.01883882
0.06881362
-0.01168759
-0.02576112
0.06960492
-0.01491576
-0.03473724
0.06724694
-0.01858156
-0.04523642
0.06155903
-0.02270764
-0.05682005
0.0524171
-0.02718166
-0.06884371
0.03991584
-0.03163332
-0.08028232
0.02456971
-0.03525359
-0.08950341
0.007500031
-0.03670303
-0.09406857
-0.00907046
-0.03446594
-0.09083521
-0.02241192
-0.02853594
-0.07875856
-0.03073812
-0.02119781
-0.06155327
-0.03345642
-0.01421678
-0.04283044
-0.03075518
-0.00848071
-0.02552262
-0.02381104
-0.004056751
-0.0115342
-0.01815777
-0.0006150776
0.003491951
-0.0146254
0.0007307213
0.01911962
-0.0118987
0.001512321
0.03170338
-0.009152866
0.002029458
0.0431772
-0.005671672
0.002266783
0.054915
0.0008589103
0.002071159
0.06735796
0.0007495054
0.07935262
0.02708794
8.33825e-05
0.006101788
0.02712333
0.0001829278
0.009819457
0.02757468
0.0002562549
0.01029016
0.02898501
0.0003248415
0.008572996
0.03245309
0.0004361394
0.004470836
0.03985319
0.0004181109
-0.003415532
0.05091434
-0.002304379
-0.01121394
0.06071751
-0.005793584
-0.01562552
0.06735217
-0.0080629
-0.02086092
0.07086402
-0.01042372
-0.02857199
0.07133996
-0.01315056
-0.0380726
0.06869542
-0.01626738
-0.04892719
0.062785
-0.01975986
-0.06069014
0.05351066
-0.02352174
-0.0727463
0.04096165
-0.02724366
-0.08414365
0.02560696
-0.03023377
-0.09332167
0.008520173
-0.03131306
-0.09785541
-0.008106698
-0.02917329
-0.094598
-0.02146908
-0.02391538
-0.08243266
-0.02975649
-0.01767946
-0.06516659
-0.03241887
-0.01190169
-0.04618466
-0.02970238
-0.007222498
-0.02820296
-0.02280839
-0.003596077
-0.01307746
-0.01718764
-0.0006418443
0.00336644
-0.01358258
0.000467455
0.02043276
-0.01081014
0.001088025
0.03441843
-0.008114175
0.00148629
0.04706439
-0.004825532
0.001657885
0.05961156
0.001417548
0.001500131
0.07239153
0.0005673935
0.08373794
0.02721769
4.65092e-05
0.006262696
0.02725944
0.0001028433
0.0101195
0.02778957
0.0001414189
0.01059104
0.02945783
0.0001619094
0.008672025
0.03358089
0.0001445438
0.003995731
0.04217379
-0.0001432905
-0.005318163
0.05427023
-0.002163865
-0.01246527
0.06322896
-0.004696509
-0.01616376
0.06916446
-0.006814149
-0.02261573
0.07225263
-0.008937492
-0.03109019
0.07243174
-0.01130001
-0.04109225
0.06957012
-0.01395534
-0.05224968
0.06352635
-0.01689305
-0.06414155
0.05420802
-0.02002418
-0.07619371
0.04168317
-0.02309378
-0.08753113
0.02636558
-0.02551486
-0.09665243
0.009287
-0.02626289
-0.1011166
-0.007345562
-0.02424019
-0.09776532
-0.02063198
-0.01967593
-0.08551809
-0.02878503
-0.0145207
-0.06830944
-0.03135089
-0.009870718
-0.04926995
-0.02864987
-0.006135365
-0.0308642
-0.02187308
-0.003186943
-0.0148754
-0.01636259
-0.0006487662
0.002740048
-0.0127302
0.0002485245
0.02096839
-0.009953442
0.0007326628
0.03611469
-0.007332787
0.001037863
0.04970222
-0.004227297
0.001167939
0.0628678
0.001760065
0.001058692
0.07588701
0.0004067905
0.08673179
0.02728596
2.431953e-05
0.006343918
0.02733021
5.299719e-05
0.01026183
0.02789704
6.803528e-05
0.01070102
0.02966369
5.832675e-05
0.008609593
0.03394029
-2.169685e-05
0.003557045
0.04265453
-0.0004229866
-0.006390813
0.05502735
-0.002021839
-0.01378726
0.06413763
-0.00387249
-0.01766899
0.06996891
-0.005654588
-0.02460392
0.07290707
-0.00749016
-0.03352257
0.07293748
-0.009497379
-0.0438611
0.06995792
-0.01171934
-0.05522691
0.06385669
-0.01414569
-0.06719275
0.05455305
-0.01669831
-0.07921733
0.04209274
-0.01916657
-0.09049486
0.02683008
-0.02105973
-0.0995581
0.009764389
-0.02151733
-0.1039135
-0.006835071
-0.01966625
-0.1003933
-0.01996754
-0.01584818
-0.08807345
-0.02792272
-0.01174617
-0.07102535
-0.03037609
-0.008124914
-0.0520926
-0.02771484
-0.00520602
-0.03347118
-0.02108242
-0.002823488
-0.01685996
-0.01573269
-0.0006384897
0.001744074
-0.01208641
7.97226e-05
0.02089428
-0.009316304
0.0004539148
0.03701422
-0.006765768
0.0006875193
0.05137478
-0.003808919
0.0007902177
0.06503687
0.00199502
0.0007228994
0.07824881
0.000279998
0.08875299
0.02732284
1.281513e-05
0.006377246
0.02736958
2.841575e-05
0.01030765
0.02795451
3.697942e-05
0.010695
0.02975921
2.795515e-05
0.008452654
0.03407202
-5.229935e-05
0.003124706
0.04276352
-0.000482197
-0.007261005
0.05518322
-0.001850675
-0.01503141
0.0643986
-0.003268785
-0.0192307
0.07024181
-0.004680638
-0.02651272
0.07311982
-0.006166238
-0.03574289
0.07306502
-0.007791767
-0.04632126
0.07001532
-0.009580995
-0.05783082
0.06389037
-0.01151583
-0.06983752
0.05462293
-0.01352147
-0.0818302
0.04223675
-0.01542038
-0.09306186
0.02702817
-0.01681746
-0.1020707
0.009974923
-0.01703806
-0.1062847
-0.006555824
-0.0154498
-0.1025495
-0.01948002
-0.01244309
-0.09019681
-0.02720975
-0.009345844
-0.07339565
-0.02955623
-0.006633084
-0.05467727
-0.02695279
-0.004401235
-0.0359799
-0.02046129
-0.00249768
-0.01892643
-0.01529457
-0.0006526524
0.0005612245
-0.01162983
-4.090108e-05
0.02039968
-0.008862896
0.0002496867
0.03734199
-0.006365743
0.0004276894
0.05234435
-0.003520431
0.000510354
0.06641631
0.002152664
0.0004746101
0.07979684
0.0001846777
0.09008774
0.02734743
8.461746e-06
0.006385014
0.02740247
2.212189e-05
0.01030262
0.0280083
4.030154e-05
0.01063097
0.02984582
6.256995e-05
0.008253714
0.03418028
4.108681e-05
0.002702041
0.04287345
-0.0004398947
-0.008018727
0.05530866
-0.001696531
-0.01609138
0.06453767
-0.002783804
-0.02057403
0.07034922
-0.003823623
-0.02813833
0.07315602
-0.004931331
-0.0376158
0.07301744
-0.0061586
-0.04838193
0.06990093
-0.007514099
-0.06000295
0.06375097
-0.008969634
-0.0720418
0.05451244
-0.01045014
-0.08401261
0.04219176
-0.011806
-0.09521127
0.02703593
-0.01274322
-0.1041633
0.01000984
-0.01279778
-0.1082274
-0.006418653
-0.01158141
-0.1043103
-0.01912073
-0.009435837
-0.09201599
-0.02664629
-0.00726861
-0.07552265
-0.0289181
-0.005335946
-0.05705572
-0.02639167
-0.003673107
-0.03834222
-0.02007466
-0.002170408
-0.02094452
-0.01499927
-0.0006339867
-0.0009146739
-0.01132494
-0.0001097891
0.01967637
-0.008553514
0.0001132345
0.03729901
-0.006091596
0.0002460702
0.05283175
-0.003325183
0.0003114788
0.06724295
0.002256488
0.0002966976
0.08077301
0.0001157329
0.09094077
0.02737224
7.436719e-06
0.006382065
0.02744847
2.380042e-05
0.01027812
0.02810078
5.824804e-05
0.01054779
0.03001366
0.0001338919
0.008037665
0.03442408
0.0002250485
0.002299362
0.04321186
-0.0003880167
-0.00862555
0.05567845
-0.001599357
-0.01687212
0.0648192
-0.002302213
-0.02155475
0.07051106
-0.002962469
-0.02935612
0.07319446
-0.003701225
-0.03904204
0.07294468
-0.004541507
-0.04996579
0.06974462
-0.005476283
-0.06168147
0.06355415
-0.006470236
-0.07375092
0.0543269
-0.007450236
-0.08570376
0.04205967
-0.008295727
-0.09686205
0.02696686
-0.008820706
-0.1057482
0.01000288
-0.008782409
-0.1097121
-0.006304763
-0.008026758
-0.1057555
-0.01882576
-0.006756451
-0.09365284
-0.02621852
-0.005429272
-0.07749135
-0.02846792
-0.004160877
-0.05924445
-0.0260295
-0.002976412
-0.0405049
-0.01989197
-0.001814045
-0.02280727
-0.01481712
-0.0005347119
-0.002507493
-0.01113825
-0.000123845
0.01888226
-0.008354319
3.573831e-05
0.03705348
-0.005911434
0.0001281856
0.05301375
-0.003197096
0.000176434
0.06769857
0.002322765
0.0001733435
0.08135662
6.763468e-05
0.09146109
0.02740388
5.483749e-06
0.006377277
0.02752163
1.910694e-05
0.01025463
0.0282856
4.970717e-05
0.01047301
0.03042388
0.0001742555
0.007821839
0.0351237
0.0005408973
0.001846535
0.04424138
-0.0006203757
-0.008942939
0.05651317
-0.001527849
-0.01717377
0.06536113
-0.001654698
-0.02209904
0.07080799
-0.001958413
-0.03011203
0.07330933
-0.002394251
-0.0399848
0.07292175
-0.002892212
-0.05104022
0.06962684
-0.00344165
-0.06282992
0.06338759
-0.00400504
-0.0749182
0.05416201
-0.004516157
-0.08684475
0.04194526
-0.004888025
-0.09794918
0.02693664
-0.005046129
-0.1067746
0.01007504
-0.0049697
-0.1107262
-0.006122635
-0.00471951
-0.1069308
-0.01855388
-0.004304571
-0.09516206
-0.0259211
-0.003731003
-0.07932412
-0.0282112
-0.003037723
-0.06122057
-0.02586004
-0.002278037
-0.04239896
-0.01982536
-0.001444782
-0.02442584
-0.01475443
-0.0004257119
-0.00378971
-0.01104726
-8.785364e-05
0.01813505
-0.008241058
7.402032e-06
0.03673624
-0.005802259
5.888094e-05
0.05302431
-0.003118202
8.813672e-05
0.06791884
0.002362745
8.964587e-05
0.08167938
3.497823e-05
0.09175741
0.02742599
2.387848e-06
0.006373352
0.02757671
7.176006e-06
0.01023715
0.0284324
1.508764e-05
0.01042141
0.03109929
-2.838046e-05
0.007605731
0.03774009
-0.0003132494
0.0007237512
0.04752189
0.0002089015
-0.009393083
0.05770546
-2.186383e-05
-0.01638807
0.06581184
-0.0005636313
-0.02228543
0.07104211
-0.000839237
-0.0305556
0.07340328
-0.001029253
-0.0405209
0.07291776
-0.001228239
-0.05164507
0.06955677
-0.001427633
-0.06346566
0.06328655
-0.001594816
-0.07554411
0.05407299
-0.001671935
-0.08742236
0.04192075
-0.001604766
-0.09845294
0.02703231
-0.001427608
-0.1072275
0.01032
-0.001331672
-0.1112662
-0.00579765
-0.001568112
-0.107845
-0.01826592
-0.00195479
-0.09654086
-0.02574489
-0.002064519
-0.08099392
-0.02816166
-0.001886473
-0.06292962
-0.02591415
-0.001532482
-0.04393827
-0.01991523
-0.001071453
-0.02568747
-0.01480334
-0.0003145349
-0.004754445
-0.01104412
4.878424e-06
0.01753129
-0.008199695
1.640444e-05
0.0364378
-0.005749041
2.100188e-05
0.05295816
-0.003076533
2.998249e-05
0.06799913
0.002383855
3.172762e-05
0.08183308
1.242526e-05
0.09190552
0.02743546
-6.128854e-07
0.006372309
0.02759238
-2.398284e-06
0.01023198
0.02845083
-7.047067e-06
0.01040247
0.03075081
3.59395e-05
0.007628207
0.03555551
0.0002973342
0.001450565
0.04494068
-0.0002846297
-0.00925725
0.05724042
-0.0002321996
-0.01744842
0.06588886
0.0001419662
-0.02253386
0.07111668
0.0002717768
-0.03069065
0.07343576
0.0003315196
-0.04069397
0.07290626
0.000414132
-0.05183001
0.069516
0.0005363078
-0.06363804
0.06323854
0.0007318201
-0.07567676
0.05405426
0.001049769
-0.08748065
0.04199567
0.001513577
-0.09840549
0.02729249
0.001995322
-0.1071213
0.01080921
0.002131078
-0.1113301
-0.005247932
0.001517951
-0.1084753
-0.01789684
0.0004413185
-0.09774709
-0.02564879
-0.0002986048
-0.08244918
-0.02831479
-0.0006030029
-0.06431341
-0.02625358
-0.0006576324
-0.04504865
-0.02030742
-0.0007080497
-0.02645795
-0.01502024
-0.0003379844
-0.005290275
-0.01115561
0.0002232275
0.01708119
-0.008230723
4.258463e-05
0.03620919
-0.005743791
-9.584403e-06
0.05287444
-0.003064688
-1.630216e-05
0.06800007
0.002390658
-1.44831e-05
0.08187683
-5.485681e-06
0.09195455
0.02742975
-3.173881e-06
0.006374251
0.02758208
-1.252991e-05
0.01023751
0.02843973
-3.677093e-05
0.01041695
0.03110295
-0.0001525267
0.007592884
0.03772139
-0.0005169664
0.0007008209
0.04750047
0.0005424582
-0.009453968
0.05769808
0.001245271
-0.01646407
0.06581406
0.001188954
-0.0223543
0.07102916
0.00134697
-0.03061149
0.07336416
0.001639756
-0.04055753
0.07285216
0.001993514
-0.05164467
0.06947277
0.002424864
-0.06340488
0.06320727
0.002961562
-0.07538772
0.05405849
0.00363979
-0.08710465
0.04210526
0.004450945
-0.09789462
0.02762869
0.005198103
-0.1065215
0.01144566
0.005410053
-0.1109285
-0.00451808
0.004586092
-0.1087455
-0.01741184
0.002983612
-0.09868934
-0.02554534
0.001660227
-0.08362737
-0.02856474
0.0008823971
-0.06536144
-0.0269818
0.000548555
-0.04571882
-0.02211964
0.0005148621
-0.02635529
-0.01639595
0.0003313557
-0.005610853
-0.0115201
-0.0001104518
0.01644059
-0.008316029
-6.02659e-05
0.03603883
-0.005773582
-5.891335e-05
0.05279887
-0.003075439
-6.763591e-05
0.06794885
0.002386619
-6.179994e-05
0.08183821
-2.369708e-05
0.09192707
0.02741218
-4.207807e-06
0.006379886
0.02753402
-1.441281e-05
0.01025635
0.02830028
-3.602442e-05
0.0104633
0.03042409
-8.455281e-05
0.007787221
0.03506183
-0.0001246154
0.001787847
0.04416011
0.0003279964
-0.00908666
0.05653319
0.00119996
-0.0173558
0.0653845
0.001769469
-0.02225294
0.0707847
0.002288382
-0.03025898
0.07322122
0.002854828
-0.04011131
0.07277016
0.003497192
-0.05111558
0.06942564
0.004242395
-0.06281214
0.0631769
0.005115899
-0.07474328
0.0540482
0.006136961
-0.08638879
0.04216652
0.007261941
-0.09705442
0.02787415
0.008245128
-0.1055819
0.01196937
0.008562425
-0.1101504
-0.003860817
0.00766027
-0.1085713
-0.01693681
0.005679442
-0.09918019
-0.02539457
0.003797061
-0.08437659
-0.02864899
0.002482874
-0.06601927
-0.0270282
0.001745141
-0.04614645
-0.02149127
0.001306925
-0.02679926
-0.0158922
0.0003947728
-0.005568836
-0.0114834
-0.0001240065
0.01666368
-0.008366086
-0.000114619
0.03603466
-0.005812394
-0.0001197462
0.05273163
-0.003101419
-0.0001308605
0.06784479
0.002373553
-0.0001199967
0.08171701
-4.623346e-05
0.09182257
0.02739205
-5.567846e-06
0.006388654
0.02748968
-1.710355e-05
0.01028682
0.02820538
-4.028553e-05
0.01053627
0.03026279
-8.062927e-05
0.007944015
0.03495881
-0.0001052911
0.002113157
0.04387672
0.0003725964
-0.008765809
0.05611818
0.001524174
-0.01697048
0.06503082
0.002380981
-0.02171713
0.07053281
0.003171194
-0.02960936
0.07306616
0.004007323
-0.03933895
0.07269021
0.004949208
-0.0502388
0.06938873
0.006022477
-0.06186799
0.06314865
0.007244962
-0.07376542
0.05400821
0.008615401
-0.08538146
0.04213556
0.01005213
-0.095983
0.02793278
0.01126871
-0.1044508
0.01220994
0.01171084
-0.1091295
-0.003493661
0.01079376
-0.1079769
-0.01666204
0.008514121
-0.09911586
-0.02531935
0.006063048
-0.08453819
-0.02864521
0.004096383
-0.0661405
-0.02677424
0.002747757
-0.04617762
-0.02068948
0.001717234
-0.02698911
-0.01527588
0.0004868022
-0.005404148
-0.01132722
-5.828599e-06
0.01715471
-0.008379192
-0.0001147572
0.03615407
-0.005865619
-0.0001805236
0.05265645
-0.003146414
-0.0002134617
0.06766408
0.002349293
-0.0001992583
0.08148877
-7.715747e-05
0.09162032
0.02736442
-7.114954e-06
0.00639788
0.02742741
-1.751975e-05
0.01032208
0.02805553
-2.977942e-05
0.01063011
0.02993822
-4.059739e-05
0.008178798
0.03433781
-4.556317e-06
0.002516652
0.04306094
0.0004386847
-0.008292346
0.05544495
0.001689083
-0.01643763
0.06455597
0.002845982
-0.02102048
0.07023724
0.003950543
-0.02869341
0.07290545
0.005106563
-0.03823141
0.07262292
0.006381853
-0.04900014
0.06936752
0.0078113
-0.06056185
0.06312218
0.009410364
-0.07244897
0.05393326
0.01115768
-0.0840834
0.04199968
0.01293324
-0.09469016
0.02777768
0.01440707
-0.1031522
0.01210982
0.01499259
-0.1079019
-0.003524463
0.01407135
-0.106988
-0.01673859
0.01150913
-0.0984557
-0.02552204
0.008467565
-0.08399982
-0.02891215
0.005776004
-0.06553514
-0.02696738
0.003748536
-0.04547874
-0.02078182
0.002167881
-0.02631568
-0.0153462
0.0005971351
-0.004780377
-0.01142352
5.140922e-05
0.01760606
-0.008495639
-0.0001600475
0.03628678
-0.005978633
-0.0002812741
0.05252237
-0.00322844
-0.0003374872
0.06735802
0.002306602
-0.0003148562
0.08110257
-0.0001221941
0.09127772
0.02734205
-1.239321e-05
0.006403881
0.02738641
-2.714207e-05
0.01035441
0.02797369
-3.493935e-05
0.01072572
0.02978394
-2.624982e-05
0.008410551
0.03408842
4.810835e-05
0.002945875
0.04273708
0.0004571723
-0.007636595
0.05511535
0.001838321
-0.01558904
0.06429114
0.003314284
-0.01996412
0.07005126
0.00475952
-0.02740336
0.07279985
0.006247977
-0.03674501
0.07258161
0.007869027
-0.04737868
0.06935308
0.009674557
-0.05887867
0.06308091
0.01167995
-0.07077747
0.05380705
0.01384426
-0.08247284
0.04175034
0.01600505
-0.0931456
0.02741346
0.01777828
-0.1016502
0.01168309
0.01852703
-0.1064428
-0.003954448
0.01758231
-0.1056052
-0.01719564
0.01470593
-0.09719327
-0.0260386
0.01103115
-0.08272808
-0.02944476
0.00755467
-0.06416476
-0.02742371
0.004798443
-0.04407081
-0.02110026
0.002658429
-0.02504798
-0.01557719
0.0007038743
-0.003747836
-0.01163552
3.131006e-05
0.018177
-0.008705795
-0.0002680981
0.03639392
-0.006164427
-0.0004437675
0.05225171
-0.003359835
-0.0005226686
0.06684108
0.002237935
-0.000483052
0.08047348
-0.0001873111
0.09072424
0.02731785
-2.477666e-05
0.006397181
0.02735364
-5.468973e-05
0.01036238
0.02791903
-7.292995e-05
0.01079447
0.02969272
-7.174034e-05
0.008616921
0.03396428
-1.103404e-05
0.003382626
0.0426068
0.0003594003
-0.006856991
0.05495711
0.001981611
-0.01452079
0.06409429
0.003904328
-0.01863687
0.069862
0.005701244
-0.0258122
0.07265655
0.007502403
-0.034925
0.07248835
0.009464803
-0.04539672
0.06928018
0.01166199
-0.0568222
0.06297137
0.014108
-0.06873842
0.05359038
0.01673986
-0.0805213
0.04136794
0.01934583
-0.09130241
0.02684775
0.02147221
-0.09988384
0.01096653
0.02240673
-0.104697
-0.004737217
0.02140438
-0.1038054
-0.01800084
0.01815264
-0.09533293
-0.02684971
0.01378049
-0.08073691
-0.03021287
0.009452415
-0.06205763
-0.02806412
0.005905265
-0.04201774
-0.02153104
0.00316313
-0.02331131
-0.01591741
0.0008007588
-0.002421876
-0.01196062
-5.067825e-05
0.01878894
-0.00902483
-0.000447517
0.03637161
-0.006443647
-0.0006848535
0.05172206
-0.003558063
-0.0007883063
0.06598498
0.002132388
-0.0007209959
0.07947503
-0.0002786251
0.08985524
0.02727954
-4.732558e-05
0.00636302
0.02731045
-0.0001057603
0.01031452
0.02785132
-0.0001485876
0.01079703
0.02957226
-0.0001797654
0.008772386
0.03377852
-0.0001845353
0.003826168
0.04240444
5.380135e-05
-0.005961986
0.05464972
0.002095318
-0.01332412
0.06366154
0.004687506
-0.01719654
0.06942729
0.006793559
-0.02405261
0.07229047
0.008863235
-0.03286074
0.07220086
0.01116696
-0.04310382
0.06903751
0.01378391
-0.05440943
0.06270737
0.01671878
-0.06632303
0.05322178
0.01988284
-0.07819769
0.04081915
0.02300659
-0.08910807
0.02608121
0.02554878
-0.09778449
0.009996618
0.02669526
-0.1025974
-0.005813117
0.02559561
-0.1015504
-0.01909499
0.021892
-0.09287638
-0.02790926
0.01674293
-0.0780598
-0.03118284
0.01148793
-0.05927883
-0.02886672
0.007075874
-0.03941969
-0.0220586
0.003654492
-0.02124378
-0.01639883
0.0008044825
-0.0008371449
-0.01242546
-0.0001972927
0.01928488
-0.009483271
-0.0007057651
0.03605654
-0.006846916
-0.001018862
0.05076016
-0.003848722
-0.001153291
0.06461001
0.001973818
-0.001047393
0.07792958
-0.0004017667
0.08852255
0.02720924
-8.405568e-05
0.006279655
0.02723469
-0.0001847515
0.01016618
0.02773011
-0.0002594308
0.01067664
0.02932899
-0.000330176
0.00882357
0.03333598
-0.0004475579
0.004269252
0.04175385
-0.0004560434
-0.004860138
0.05363971
0.002207246
-0.01210442
0.0625114
0.005660472
-0.01589897
0.06842901
0.007893445
-0.02228665
0.07147718
0.01021794
-0.03063755
0.07154721
0.01291066
-0.04054063
0.06848977
0.01600776
-0.05165084
0.0621846
0.01950295
-0.06351772
0.05262773
0.02328149
-0.07546669
0.0400638
0.0270097
-0.08650745
0.02510989
0.03003996
-0.09528138
0.008807239
0.03142943
-0.1000725
-0.007118335
0.03019156
-0.09879221
-0.02040411
0.02595396
-0.08982056
-0.02915245
0.01994199
-0.0747383
-0.03231248
0.01368222
-0.05591372
-0.02982424
0.008327793
-0.03640062
-0.02278897
0.004157504
-0.01898184
-0.0170145
0.0008008497
0.0004338085
-0.01306099
-0.0003983564
0.01948279
-0.01011833
-0.001045095
0.03523913
-0.007414359
-0.001454568
0.04914066
-0.004268123
-0.00163341
0.06247691
0.001738967
-0.001481682
0.07559343
-0.0005595408
0.08652055
0.02707985
-0.0001406769
0.006116131
0.02710041
-0.0002968284
0.009858871
0.0275194
-0.0003977932
0.01036226
0.02886262
-0.000465486
0.008700772
0.03220957
-0.000562168
0.004706629
0.03940425
-0.0006850012
-0.003002347
0.0502494
0.002088015
-0.01094094
0.05998447
0.005790427
-0.01545992
0.06659668
0.008527458
-0.02063551
0.07004912
0.01138421
-0.02824439
0.07038942
0.01461093
-0.03767847
0.0675175
0.0182822
-0.04852054
0.06130661
0.02242767
-0.06029263
0.05174012
0.02691869
-0.07228626
0.03906683
0.03135109
-0.08344183
0.02393498
0.03495199
-0.09230275
0.007437289
0.03662201
-0.09705008
-0.008581523
0.03520586
-0.0954811
-0.02183723
0.03034962
-0.08616225
-0.03048526
0.02338597
-0.07082109
-0.03352063
0.01604578
-0.05206126
-0.03088552
0.009675077
-0.03310077
-0.0236886
0.00468332
-0.01670131
-0.01779542
0.0007918731
0.001345234
-0.01389364
-0.0006472992
0.01915946
-0.01096748
-0.001458685
0.03367692
-0.008193797
-0.001989761
0.04659067
-0.004866255
-0.002236299
0.05928099
0.001397706
-0.002049079
0.07214194
-0.0007394958
0.08355921
0.0268423
-0.0002257853
0.005828969
0.02687301
-0.0004540555
0.009317851
0.02723043
-0.0005795733
0.009770918
0.02837105
-0.0006364024
0.008298712
0.03108066
-0.0006123737
0.004875992
0.03645639
-0.0002457017
-0.001305375
0.04607977
0.001099449
-0.009633066
0.05720385
0.004995777
-0.01480948
0.06437377
0.008888154
-0.0185925
0.06806839
0.0124859
-0.0254838
0.06865854
0.01627451
-0.03445744
0.06602369
0.02056675
-0.0449925
0.05999143
0.02544093
-0.05662238
0.05050789
0.03075034
-0.06861891
0.03781093
0.03600284
-0.07985694
0.02257283
0.0402721
-0.08878068
0.00593731
0.04226964
-0.09346127
-0.01011926
0.0406345
-0.09157214
-0.02328303
0.03506681
-0.08190276
-0.03177672
0.02705481
-0.06636388
-0.03467127
0.01855932
-0.04782459
-0.03192914
0.01110519
-0.02965431
-0.02464773
0.005216522
-0.01455979
-0.01870883
0.0007662287
0.001819156
-0.01491075
-0.0009321438
0.01810826
-0.01204558
-0.001925961
0.03112649
-0.009228986
-0.002603288
0.04281169
-0.005711696
-0.002949869
0.05465942
0.0008371251
-0.002743969
0.0671647
-0.0009358898
0.07921414
0.02638493
-0.000346344
0.005359803
0.02643451
-0.0006593143
0.00845332
0.02673433
-0.0008070023
0.008814467
0.02769737
-0.0008670309
0.007555473
0.03036206
-0.0009741605
0.004641794
0.03661668
-0.001217466
-0.001094517
0.04598631
0.001201806
-0.008379883
0.0549263
0.005677361
-0.01214086
0.06150176
0.009661536
-0.01599927
0.06528794
0.0135795
-0.02243133
0.06616614
0.01783421
-0.03091844
0.0638874
0.02274881
-0.04109712
0.05817694
0.02843345
-0.05251836
0.0489141
0.03469446
-0.06444992
0.03631321
0.04091596
-0.07571369
0.02106731
0.04597898
-0.08466053
0.004375749
0.04836589
-0.08925122
-0.01163656
0.04646528
-0.08703554
-0.02461313
0.04006924
-0.0770585
-0.03285729
0.03088337
-0.06143249
-0.03555821
0.0211451
-0.04330247
-0.03274191
0.01255001
-0.02615977
-0.02547581
0.005695408
-0.01263434
-0.01962811
0.0006847438
0.001824749
-0.01601239
-0.001246202
0.01619612
-0.01329705
-0.002414518
0.02740356
-0.01052235
-0.003249403
0.03753753
-0.00686387
-0.003731475
0.04822343
-2.358756e-05
-0.003545473
0.06013684
-0.001087444
0.07287636
0.02546966
-0.0004980119
0.004639672
0.02551357
-0.0008844779
0.007177273
0.02568864
-0.001026272
0.007422155
0.02631225
-0.001056194
0.006425899
0.02798673
-0.001098599
0.004287853
0.03170925
-0.001187455
0.0004468888
0.03950448
0.0001958069
-0.006572042
0.04978792
0.004840672
-0.01105504
0.05693124
0.00987931
-0.0136036
0.06119719
0.01425621
-0.0193026
0.06268509
0.01894473
-0.02722801
0.06103771
0.02455557
-0.03694611
0.05587772
0.03121263
-0.04804463
0.04701792
0.03863548
-0.05980478
0.03465272
0.04604113
-0.07101007
0.01950358
0.05207193
-0.07992542
0.002840243
0.05493506
-0.08440512
-0.01303681
0.0527078
-0.0818835
-0.0256977
0.04530669
-0.0716823
-0.03352894
0.03474354
-0.05611991
-0.03589163
0.02362169
-0.03859662
-0.03297173
0.01383641
-0.02266797
-0.02582424
0.005962059
-0.01086724
-0.02023295
0.0004649396
0.00142579
-0.01691256
-0.001606654
0.01344421
-0.0144945
-0.002890161
0.02248161
-0.01194287
-0.003858602
0.03065284
-0.008312952
-0.004502371
0.03966478
-0.001320766
-0.004372284
0.0504696
-0.0009847836
0.06355448
0.02359609
-0.0006509629
0.003610085
0.02357588
-0.001060772
0.005450173
0.02355973
-0.00116061
0.005590325
0.0237881
-0.001142365
0.004919584
0.02470566
-0.001129738
0.003588896
0.02722473
-0.001171633
0.001062411
0.03340728
-0.0005819646
-0.004431218
0.04281081
0.003623825
-0.008677897
0.05035247
0.009279824
-0.0112626
0.05566267
0.01384895
-0.01634688
0.05827296
0.01903738
-0.02358343
0.0576338
0.02559454
-0.03269987
0.05328638
0.03354549
-0.0433365
0.04500418
0.04246818
-0.05480034
0.03298998