/*--------------------------------*- C++ -*----------------------------------*\
| =========                 |                                                 |
| \\      /  F ield         | OpenFOAM: The Open Source CFD Toolbox           |
|  \\    /   O peration     | Version:  2506                                  |
|   \\  /    A nd           | Website:  www.openfoam.com                      |
|    \\/     M anipulation  |                                                 |
\*---------------------------------------------------------------------------*/
FoamFile
{
    version     2.0;
    format      ascii;
    arch        "LSB;label=32;scalar=64";
    class       volScalarField;
    location    "1000/floor";
    object      damage;
}
// * * * * * * * * * * * * * * * * * * * * * * * * * * * * * * * * * * * * * //

dimensions      [0 0 0 0 0 0 0];

internalField   nonuniform List<scalar> 
2700
(
0.004063952
0.004064823
0.004065673
0.004066437
0.004067126
0.004067737
0.004068275
0.004068749
0.004069161
0.004069513
0.004069797
0.004070013
0.004070177
0.004070289
0.004070348
0.00407035
0.004070297
0.00407019
0.004070026
0.004069805
0.00406952
0.004069168
0.004068749
0.004068261
0.0040677
0.004067062
0.004066345
0.004065546
0.004064668
0.004063804
0.00406481
0.004065679
0.004066526
0.004067284
0.004067959
0.004068555
0.004069076
0.004069527
0.004069917
0.004070245
0.004070509
0.004070715
0.004070871
0.004070979
0.004071035
0.004071037
0.004070986
0.004070884
0.004070726
0.004070512
0.004070237
0.004069897
0.004069491
0.004069017
0.00406847
0.004067848
0.004067147
0.004066363
0.004065501
0.004064651
0.00406568
0.004066538
0.004067371
0.004068112
0.004068769
0.004069346
0.004069848
0.00407028
0.004070651
0.004070962
0.004071213
0.004071408
0.004071557
0.004071659
0.004071711
0.004071713
0.004071666
0.004071568
0.004071418
0.004071212
0.004070948
0.004070622
0.00407023
0.004069772
0.004069242
0.004068637
0.004067954
0.004067189
0.004066344
0.004065509
0.004066472
0.004067314
0.00406813
0.004068853
0.004069489
0.004070047
0.00407053
0.004070944
0.004071299
0.004071595
0.004071833
0.004072019
0.004072159
0.004072256
0.004072306
0.004072308
0.004072263
0.004072171
0.004072027
0.004071831
0.004071578
0.004071265
0.004070888
0.004070445
0.004069933
0.004069346
0.004068681
0.004067935
0.004067108
0.004066289
0.004067181
0.004068008
0.004068805
0.004069509
0.004070126
0.004070664
0.004071129
0.004071526
0.004071865
0.004072146
0.004072372
0.004072548
0.004072682
0.004072773
0.004072821
0.004072823
0.004072781
0.004072693
0.004072557
0.004072369
0.004072127
0.004071827
0.004071465
0.004071038
0.004070542
0.004069973
0.004069327
0.004068599
0.004067791
0.004066988
0.00406781
0.004068622
0.004069401
0.004070086
0.004070684
0.004071204
0.004071651
0.004072032
0.004072355
0.004072623
0.004072837
0.004073004
0.00407313
0.004073217
0.004073263
0.004073265
0.004073225
0.004073143
0.004073014
0.004072834
0.004072603
0.004072315
0.004071967
0.004071555
0.004071075
0.004070524
0.004069895
0.004069185
0.004068394
0.004067607
0.004068363
0.00406916
0.004069922
0.004070589
0.004071169
0.004071671
0.004072102
0.004072467
0.004072775
0.004073031
0.004073234
0.004073393
0.004073513
0.004073595
0.004073638
0.004073641
0.004073604
0.004073526
0.004073404
0.004073232
0.004073011
0.004072735
0.0040724
0.004072002
0.004071537
0.004071002
0.00407039
0.004069697
0.004068923
0.004068151
0.004068843
0.004069626
0.004070372
0.004071022
0.004071586
0.004072072
0.004072487
0.004072837
0.004073133
0.004073376
0.00407357
0.004073721
0.004073835
0.004073913
0.004073955
0.004073958
0.004073924
0.00407385
0.004073733
0.00407357
0.004073357
0.004073092
0.004072769
0.004072383
0.004071933
0.004071412
0.004070816
0.004070139
0.004069381
0.004068624
0.004069258
0.004070028
0.004070759
0.004071393
0.004071941
0.004072412
0.004072812
0.00407315
0.004073433
0.004073665
0.00407385
0.004073994
0.004074102
0.004074178
0.004074218
0.004074221
0.004074189
0.00407412
0.004074009
0.004073852
0.004073648
0.004073392
0.00407308
0.004072707
0.004072269
0.004071762
0.00407118
0.004070518
0.004069776
0.004069031
0.004069606
0.004070365
0.004071082
0.004071702
0.004072236
0.004072693
0.004073081
0.004073407
0.004073679
0.004073902
0.004074079
0.004074217
0.004074321
0.004074393
0.004074432
0.004074436
0.004074406
0.004074341
0.004074235
0.004074084
0.004073887
0.00407364
0.004073338
0.004072975
0.004072548
0.004072054
0.004071485
0.004070836
0.004070106
0.004069374
0.004069891
0.004070638
0.004071343
0.004071952
0.004072474
0.00407292
0.004073298
0.004073613
0.004073877
0.004074091
0.004074262
0.004074394
0.004074494
0.004074565
0.004074602
0.004074607
0.00407458
0.004074518
0.004074416
0.00407427
0.004074079
0.00407384
0.004073545
0.004073188
0.004072771
0.004072287
0.004071728
0.00407109
0.004070372
0.004069651
0.004070171
0.004070857
0.004071548
0.004072147
0.00407266
0.004073097
0.004073466
0.004073773
0.004074029
0.004074238
0.004074403
0.004074531
0.004074628
0.004074697
0.004074734
0.004074739
0.004074713
0.004074654
0.004074556
0.004074414
0.004074228
0.004073994
0.0040737
0.004073311
0.004072896
0.004072419
0.004071869
0.00407124
0.004070535
0.004069859
0.004070964
0.00407109
0.004071705
0.004072292
0.004072798
0.004073227
0.004073589
0.004073891
0.004074141
0.004074345
0.004074506
0.004074631
0.004074726
0.004074793
0.00407483
0.004074835
0.004074811
0.004074754
0.004074658
0.00407452
0.004074338
0.004074103
0.004073735
0.004072708
0.00407222
0.004071744
0.0040712
0.004070583
0.004069958
0.004069887
0.004077107
0.004071809
0.004071844
0.00407239
0.004072889
0.004073314
0.004073671
0.004073968
0.004074214
0.004074414
0.004074573
0.004074696
0.004074789
0.004074855
0.004074892
0.004074898
0.004074875
0.004074819
0.004074725
0.004074589
0.004074408
0.004074136
0.004073129
0.004066033
0.004064885
0.004064374
0.004063835
0.004063257
0.004063201
0.004068527
0.00407781
0.004071937
0.0040719
0.004072438
0.004072934
0.004073357
0.004073711
0.004074006
0.004074251
0.004074449
0.004074606
0.004074727
0.00407482
0.004074886
0.004074922
0.004074929
0.004074906
0.004074851
0.004074758
0.004074624
0.004074443
0.004074168
0.004073084
0.004065347
0.004064122
0.004063608
0.00406307
0.00406246
0.004061843
0.004061779
0.004077847
0.004071942
0.004071899
0.004072438
0.004072934
0.004073356
0.004073711
0.004074006
0.00407425
0.004074448
0.004074605
0.004074727
0.00407482
0.004074885
0.004074922
0.004074928
0.004074905
0.004074851
0.004074758
0.004074623
0.004074442
0.004074167
0.004073078
0.004065301
0.004064071
0.004063557
0.004063018
0.004062404
0.004061714
0.004061051
0.004077752
0.004071883
0.004071848
0.004072389
0.004072888
0.004073313
0.00407367
0.004073967
0.004074213
0.004074413
0.004074572
0.004074694
0.004074788
0.004074854
0.00407489
0.004074896
0.004074873
0.004074818
0.004074724
0.004074588
0.004074406
0.004074129
0.004073038
0.00406526
0.004064027
0.00406351
0.00406297
0.004062352
0.004061655
0.004060952
0.004076994
0.0040717
0.00407174
0.004072292
0.004072796
0.004073226
0.004073587
0.004073889
0.004074139
0.004074343
0.004074504
0.004074629
0.004074724
0.004074791
0.004074827
0.004074833
0.004074808
0.004074751
0.004074656
0.004074517
0.004074333
0.004074053
0.004072964
0.004065221
0.004063991
0.00406347
0.004062924
0.004062302
0.004061599
0.00406089
0.004070795
0.004070928
0.00407155
0.004072144
0.004072657
0.004073094
0.004073462
0.00407377
0.004074026
0.004074235
0.004074427
0.004074528
0.004074625
0.004074693
0.00407473
0.004074735
0.004074709
0.00407465
0.004074552
0.00407441
0.004074222
0.004073943
0.004072928
0.004065823
0.004064666
0.004064144
0.004063592
0.004062963
0.004062253
0.004061538
0.004069926
0.004070638
0.004071339
0.004071947
0.00407247
0.004072915
0.004073292
0.004073608
0.004073871
0.004074086
0.004074257
0.004074388
0.004074489
0.004074559
0.004074596
0.004074601
0.004074573
0.004074511
0.004074409
0.004074263
0.004074072
0.004073827
0.004073449
0.00407241
0.004071909
0.004071418
0.00407086
0.004070222
0.004069505
0.004068781
0.004069602
0.004070358
0.004071075
0.004071695
0.004072229
0.004072686
0.004073074
0.004073399
0.004073671
0.004073894
0.004074071
0.004074208
0.004074312
0.004074384
0.004074423
0.004074427
0.004074397
0.004074332
0.004074226
0.004074075
0.004073878
0.004073631
0.004073323
0.004072919
0.004072487
0.004071992
0.004071424
0.00407078
0.004070081
0.004069318
0.004069249
0.004070019
0.00407075
0.004071384
0.004071931
0.004072402
0.004072802
0.004073139
0.004073422
0.004073654
0.004073839
0.004073983
0.004074091
0.004074166
0.004074206
0.004074209
0.004074178
0.004074108
0.004073997
0.00407384
0.004073636
0.004073381
0.004073069
0.004072693
0.004072256
0.004071749
0.004071172
0.004070576
0.004070341
0.004069094
0.004068832
0.004069615
0.004070361
0.004071011
0.004071574
0.004072059
0.004072474
0.004072824
0.004073119
0.004073362
0.004073556
0.004073706
0.00407382
0.004073898
0.00407394
0.004073943
0.004073909
0.004073835
0.004073718
0.004073555
0.004073342
0.004073077
0.004072754
0.004072369
0.004071919
0.0040714
0.004070838
0.004070704
0.004074837
0.004069225
0.004068349
0.004069146
0.004069908
0.004070574
0.004071154
0.004071656
0.004072085
0.00407245
0.004072758
0.004073013
0.004073216
0.004073374
0.004073494
0.004073576
0.004073619
0.004073622
0.004073585
0.004073507
0.004073385
0.004073214
0.004072992
0.004072717
0.004072382
0.004071984
0.00407152
0.004070985
0.004070378
0.004069751
0.004069486
0.004068212
0.004067794
0.004068605
0.004069384
0.004070068
0.004070666
0.004071185
0.004071631
0.004072011
0.004072334
0.004072601
0.004072815
0.004072982
0.004073108
0.004073194
0.00407324
0.004073242
0.004073202
0.00407312
0.004072991
0.004072812
0.004072581
0.004072293
0.004071946
0.004071534
0.004071055
0.004070504
0.004069876
0.004069171
0.004068412
0.004067595
0.004067161
0.004067988
0.004068785
0.004069488
0.004070104
0.004070642
0.004071106
0.004071502
0.00407184
0.004072121
0.004072347
0.004072522
0.004072655
0.004072747
0.004072794
0.004072796
0.004072754
0.004072667
0.004072531
0.004072343
0.004072102
0.004071802
0.00407144
0.004071014
0.004070519
0.00406995
0.004069305
0.004068577
0.004067771
0.004066968
0.00406645
0.004067291
0.004068106
0.004068828
0.004069464
0.004070021
0.004070504
0.004070917
0.004071271
0.004071567
0.004071804
0.004071989
0.004072129
0.004072226
0.004072276
0.004072278
0.004072233
0.00407214
0.004071997
0.004071801
0.004071549
0.004071236
0.00407086
0.004070418
0.004069906
0.00406932
0.004068656
0.00406791
0.004067084
0.004066266
0.004065656
0.004066512
0.004067344
0.004068085
0.004068741
0.004069317
0.004069818
0.00407025
0.00407062
0.004070931
0.004071181
0.004071375
0.004071523
0.004071625
0.004071678
0.00407168
0.004071632
0.004071534
0.004071384
0.004071179
0.004070916
0.00407059
0.004070199
0.004069741
0.004069212
0.004068609
0.004067926
0.004067161
0.004066318
0.004065484
0.004064782
0.004065651
0.004066497
0.004067255
0.004067928
0.004068524
0.004069044
0.004069495
0.004069883
0.004070212
0.004070475
0.00407068
0.004070835
0.004070942
0.004070998
0.004071
0.004070949
0.004070847
0.00407069
0.004070476
0.004070202
0.004069863
0.004069457
0.004068983
0.004068438
0.004067817
0.004067116
0.004066333
0.004065472
0.004064623
0.004063921
0.004064796
0.004065639
0.004066407
0.004067092
0.004067705
0.004068241
0.004068715
0.004069124
0.004069483
0.004069761
0.004069975
0.004070138
0.00407025
0.004070308
0.00407031
0.004070257
0.00407015
0.004069987
0.004069766
0.004069482
0.004069131
0.004068712
0.004068225
0.004067664
0.004067028
0.004066312
0.004065513
0.004064636
0.004063775
0.0009094346
0.0009142654
0.0009188716
0.0009230092
0.0009267286
0.0009300297
0.0009329301
0.0009354848
0.0009377017
0.0009396018
0.0009411305
0.0009422959
0.0009431786
0.0009437866
0.000944104
0.0009441152
0.0009438295
0.0009432515
0.0009423688
0.000941173
0.0009396365
0.0009377397
0.0009354765
0.000932843
0.0009298141
0.0009263745
0.0009225053
0.0009181925
0.0009134475
0.0009086841
0.0009141803
0.0009189961
0.0009235788
0.0009276725
0.0009313153
0.0009345309
0.0009373419
0.0009397757
0.000941876
0.0009436444
0.000945069
0.0009461775
0.0009470206
0.0009476014
0.0009479033
0.0009479138
0.0009476415
0.0009470879
0.000946239
0.0009450851
0.0009436023
0.00094177
0.0009395786
0.0009370213
0.0009340743
0.0009307187
0.0009269359
0.0009227101
0.0009180491
0.0009133568
0.0009188903
0.0009236367
0.00092814
0.0009321421
0.0009356839
0.0009387962
0.0009415049
0.0009438361
0.0009458405
0.0009475186
0.0009488686
0.0009499222
0.0009507231
0.0009512744
0.0009515604
0.0009515708
0.0009513129
0.0009507866
0.0009499755
0.0009488686
0.0009474449
0.0009456842
0.0009435724
0.0009410999
0.0009382437
0.0009349833
0.0009312985
0.0009271707
0.0009226051
0.0009179962
0.0009231612
0.0009278253
0.0009322334
0.0009361331
0.0009395693
0.0009425766
0.0009451836
0.0009474186
0.0009493329
0.0009509304
0.0009522132
0.0009532138
0.0009539732
0.0009544957
0.0009547665
0.0009547775
0.0009545343
0.0009540357
0.000953263
0.0009522039
0.0009508399
0.0009491511
0.0009471198
0.0009447325
0.0009419682
0.0009388049
0.00093522
0.000931193
0.0009267259
0.0009222043
0.0009269871
0.0009315663
0.0009358757
0.0009396714
0.0009430024
0.0009459063
0.0009484138
0.0009505559
0.0009523829
0.0009539028
0.0009551211
0.0009560704
0.0009567897
0.0009572847
0.0009575418
0.0009575536
0.0009573252
0.000956854
0.0009561194
0.0009551076
0.0009538023
0.000952184
0.0009502315
0.0009479277
0.0009452539
0.0009421863
0.0009387007
0.000934774
0.0009304057
0.0009259722
0.0009303832
0.0009348785
0.0009390904
0.0009427842
0.000946013
0.0009488168
0.0009512288
0.0009532819
0.0009550253
0.0009564714
0.0009576281
0.0009585286
0.0009592099
0.0009596795
0.0009599244
0.0009599373
0.0009597238
0.0009592791
0.0009585811
0.000957615
0.0009563661
0.0009548152
0.0009529381
0.0009507145
0.0009481276
0.0009451523
0.0009417626
0.0009379334
0.0009336614
0.0009293145
0.0009333662
0.0009377813
0.0009418996
0.0009454965
0.0009486282
0.0009513375
0.0009536595
0.0009556288
0.0009572942
0.0009586709
0.0009597704
0.0009606251
0.0009612714
0.0009617176
0.0009619519
0.0009619663
0.0009617671
0.0009613476
0.0009606844
0.0009597612
0.0009585651
0.0009570772
0.0009552705
0.000953122
0.0009506166
0.0009477284
0.0009444295
0.0009406928
0.0009365128
0.0009322488
0.0009359567
0.0009402965
0.0009443271
0.0009478335
0.0009508752
0.000953497
0.0009557359
0.0009576279
0.0009592218
0.0009605349
0.000961582
0.0009623949
0.0009630096
0.0009634352
0.0009636601
0.0009636762
0.0009634909
0.0009630951
0.0009624639
0.0009615802
0.0009604325
0.0009590023
0.0009572598
0.00095518
0.0009527496
0.0009499414
0.0009467263
0.0009430756
0.0009389816
0.0009347955
0.0009381918
0.0009424615
0.0009464102
0.0009498319
0.0009527893
0.0009553293
0.0009574911
0.0009593116
0.0009608398
0.0009620943
0.0009630934
0.0009638683
0.0009644545
0.000964862
0.0009650786
0.0009650971
0.000964925
0.0009645516
0.0009639503
0.0009631033
0.0009620003
0.0009606229
0.0009589395
0.0009569231
0.0009545622
0.0009518288
0.0009486921
0.0009451217
0.0009411078
0.0009369947
0.0009400726
0.0009442787
0.0009481539
0.0009515
0.0009543824
0.0009568499
0.0009589429
0.0009606999
0.0009621697
0.0009633725
0.0009643293
0.000965071
0.0009656326
0.0009660248
0.0009662345
0.0009662558
0.000966096
0.000965743
0.0009651686
0.000964354
0.0009632906
0.0009619597
0.0009603286
0.0009583679
0.0009560682
0.0009534006
0.0009503331
0.0009468341
0.0009428917
0.000938844
0.0009416115
0.0009457506
0.0009495639
0.0009528471
0.0009556669
0.0009580739
0.0009601097
0.0009618137
0.0009632349
0.0009643948
0.0009653161
0.0009660302
0.0009665717
0.0009669516
0.0009671562
0.0009671805
0.0009670314
0.0009666962
0.0009661448
0.0009653576
0.000964327
0.0009630343
0.0009614449
0.0009595234
0.0009572729
0.0009546593
0.0009516487
0.0009482084
0.0009443258
0.000940338
0.0009434481
0.0009469279
0.0009506663
0.000953898
0.0009566678
0.0009590261
0.0009610157
0.0009626771
0.0009640591
0.0009651848
0.0009660774
0.0009667697
0.0009672956
0.0009676659
0.0009678671
0.0009678948
0.0009677551
0.0009674346
0.0009669018
0.0009661365
0.0009651315
0.0009638679
0.0009622929
0.00096025
0.0009580198
0.0009554475
0.000952482
0.0009490893
0.0009452715
0.0009414756
0.0009467892
0.0009480767
0.000951506
0.0009546808
0.0009574102
0.0009597301
0.0009616836
0.0009633117
0.0009646631
0.0009657624
0.0009666328
0.0009673084
0.0009678228
0.0009681859
0.0009683847
0.0009684154
0.0009682832
0.0009679744
0.0009674566
0.0009667084
0.0009657225
0.0009644633
0.0009626011
0.0009576309
0.0009551081
0.0009525499
0.00094962
0.0009462821
0.0009427945
0.0009418115
0.000982099
0.0009514488
0.000952201
0.0009552066
0.0009579024
0.0009601954
0.0009621237
0.0009637287
0.0009650591
0.0009661402
0.0009669954
0.0009676593
0.0009681657
0.0009685238
0.0009687213
0.0009687541
0.0009686274
0.0009683269
0.0009678199
0.0009670835
0.0009661051
0.0009647049
0.0009599055
0.0009196819
0.000913709
0.0009110082
0.0009081037
0.000904931
0.0009041066
0.000935311
0.0009853373
0.0009520363
0.0009524938
0.0009554673
0.0009581479
0.0009604272
0.0009623426
0.0009639356
0.0009652548
0.0009663263
0.0009671735
0.0009678313
0.0009683335
0.0009686892
0.0009688859
0.00096892
0.0009687962
0.0009685
0.0009679985
0.0009672684
0.0009662964
0.0009648857
0.0009597825
0.0009166134
0.0009103281
0.0009076198
0.000904722
0.0009014253
0.0008979797
0.0008970357
0.0009854868
0.0009520517
0.000952493
0.0009554655
0.000958146
0.0009604253
0.0009623406
0.0009639335
0.0009652526
0.0009663241
0.0009671712
0.0009678288
0.000968331
0.0009686865
0.0009688832
0.0009689172
0.0009687932
0.000968497
0.0009679955
0.0009672652
0.0009662931
0.0009648811
0.0009597587
0.0009164324
0.0009101277
0.000907418
0.0009045194
0.0009012049
0.0008974663
0.0008937434
0.0009850282
0.0009517408
0.0009522132
0.0009552016
0.0009578966
0.0009601896
0.0009621178
0.0009637227
0.0009650529
0.0009661338
0.0009669888
0.0009676523
0.0009681584
0.0009685162
0.0009687133
0.0009687459
0.0009686189
0.0009683182
0.000967811
0.0009670744
0.0009660949
0.0009646742
0.0009595424
0.0009162062
0.0009098903
0.0009071685
0.0009042568
0.0009009273
0.0008971562
0.00089327
0.0009814903
0.0009508636
0.0009516431
0.0009546769
0.0009574003
0.0009597199
0.0009616732
0.000963301
0.0009646523
0.0009657515
0.0009666347
0.0009672968
0.0009678104
0.000968173
0.0009683714
0.0009684016
0.000968269
0.0009679599
0.0009674419
0.000966693
0.0009656996
0.0009642636
0.0009591331
0.0009159356
0.0009096177
0.0009068739
0.0009039374
0.0009005817
0.0008967834
0.0008928666
0.0009458706
0.0009472005
0.0009506685
0.0009538829
0.0009566515
0.0009590094
0.0009609987
0.0009626597
0.0009640415
0.0009651801
0.0009667402
0.000966764
0.0009672761
0.0009676457
0.0009678463
0.0009678735
0.0009677333
0.0009674124
0.0009668792
0.0009661132
0.0009651006
0.0009636603
0.0009588171
0.0009185482
0.000912523
0.0009097652
0.0009067939
0.0009034014
0.0008995661
0.0008956152
0.0009417355
0.000945744
0.0009495398
0.0009528213
0.0009556405
0.0009580468
0.0009600819
0.0009617853
0.0009632057
0.0009643652
0.000965299
0.0009659993
0.0009665398
0.000966919
0.000967123
0.0009671468
0.0009669973
0.0009666617
0.0009661099
0.0009653224
0.0009642907
0.0009629776
0.000961056
0.0009560225
0.0009534297
0.0009507958
0.0009477852
0.0009443464
0.000940469
0.0009364708
0.0009400442
0.000944244
0.0009481175
0.0009514626
0.000954344
0.0009568105
0.0009589025
0.0009606584
0.0009621272
0.000963329
0.000964285
0.0009650255
0.0009655863
0.0009659777
0.0009661868
0.0009662074
0.0009660472
0.000965694
0.0009651194
0.0009643048
0.0009632414
0.0009619095
0.0009602587
0.0009581349
0.0009558158
0.0009531478
0.0009500825
0.0009466008
0.0009427839
0.0009386143
0.0009381465
0.0009424147
0.0009463621
0.0009497824
0.0009527384
0.0009552771
0.0009574374
0.0009592564
0.0009607832
0.0009620363
0.0009630342
0.0009638079
0.0009643931
0.0009647998
0.0009650156
0.0009650335
0.0009648611
0.0009644875
0.0009638862
0.0009630394
0.0009619368
0.00096056
0.0009588765
0.0009568546
0.0009544941
0.0009517628
0.0009486441
0.0009453394
0.0009437075
0.0009372332
0.0009358982
0.0009402364
0.0009442653
0.0009477699
0.0009508097
0.0009534296
0.0009556667
0.0009575567
0.0009591488
0.0009604602
0.0009615056
0.000962317
0.0009629305
0.0009633552
0.0009635793
0.0009635949
0.0009634094
0.0009630135
0.0009623825
0.0009614993
0.0009603524
0.0009589231
0.0009571819
0.0009551034
0.000952675
0.0009498744
0.0009467969
0.0009456678
0.0009710433
0.0009375344
0.0009332917
0.0009377051
0.0009418212
0.0009454157
0.000948545
0.0009512518
0.0009535714
0.0009555382
0.0009572012
0.0009585759
0.0009596733
0.0009605261
0.000961171
0.0009616161
0.0009618496
0.0009618635
0.0009616642
0.0009612448
0.0009605821
0.0009596598
0.0009584648
0.0009569784
0.0009551734
0.000953027
0.000950524
0.0009476391
0.0009443593
0.0009408893
0.0009390923
0.0009324683
0.0009302937
0.0009347862
0.0009389952
0.0009426862
0.000945912
0.0009487128
0.0009511218
0.0009531719
0.0009549126
0.0009563561
0.0009575104
0.0009584087
0.0009590883
0.0009595567
0.0009598008
0.0009598133
0.0009595997
0.0009591553
0.0009584582
0.0009574932
0.0009562458
0.0009546968
0.0009528219
0.0009506009
0.0009480169
0.0009450448
0.0009416594
0.0009378496
0.0009337051
0.0009292384
0.0009268826
0.0009314583
0.0009357643
0.0009395565
0.0009428841
0.0009457844
0.0009482885
0.0009504272
0.000952251
0.000953768
0.0009549835
0.0009559304
0.0009566478
0.0009571415
0.0009573978
0.0009574092
0.0009571808
0.0009567101
0.0009559765
0.0009549662
0.0009536629
0.0009520468
0.0009500969
0.0009477963
0.0009451258
0.0009420618
0.0009385799
0.0009346578
0.0009302983
0.0009258635
0.0009230411
0.0009277018
0.0009321061
0.0009360018
0.0009394342
0.0009424377
0.0009450408
0.0009472721
0.000949183
0.0009507772
0.000952057
0.0009530549
0.0009538121
0.0009543332
0.0009546031
0.0009546138
0.0009543707
0.0009538727
0.0009531013
0.0009520439
0.0009506823
0.0009489961
0.0009469677
0.0009445839
0.0009418234
0.0009386641
0.0009350834
0.0009310607
0.000926598
0.0009220803
0.0009187554
0.0009234984
0.0009279973
0.0009319954
0.0009355328
0.0009386413
0.0009413458
0.0009436731
0.0009456736
0.0009473488
0.0009486953
0.0009497457
0.0009505442
0.000951094
0.000951379
0.0009513891
0.0009511314
0.0009506058
0.0009497961
0.0009486912
0.0009472701
0.0009455123
0.0009434039
0.0009409351
0.0009380831
0.0009348272
0.0009311468
0.0009270238
0.000922463
0.0009178585
0.0009140334
0.0009188471
0.0009234207
0.0009275129
0.0009311488
0.0009343625
0.000937169
0.0009395988
0.0009416939
0.0009434643
0.0009448816
0.0009459855
0.0009468257
0.0009474046
0.0009477056
0.0009477156
0.0009474435
0.0009468908
0.0009460433
0.0009448916
0.0009434117
0.0009415826
0.0009393948
0.0009368415
0.0009338989
0.0009305482
0.0009267703
0.0009225495
0.0009178936
0.0009132062
0.0009092812
0.0009141268
0.0009186923
0.0009228504
0.0009265466
0.0009298601
0.000932751
0.0009353043
0.0009375069
0.0009394425
0.0009409398
0.0009420944
0.0009429729
0.0009435788
0.0009438951
0.0009439058
0.0009436203
0.0009430432
0.0009421615
0.000940968
0.0009394352
0.0009375419
0.0009352824
0.0009326523
0.000929628
0.0009261942
0.00092233
0.0009180225
0.0009132827
0.0009085251
0.0006447657
0.0006696643
0.0006927821
0.0007135032
0.0007321125
0.0007486118
0.000763089
0.0007758227
0.0007868538
0.0007963002
0.0008038973
0.0008096952
0.0008140983
0.0008171347
0.0008187181
0.0008187659
0.0008173294
0.0008144349
0.0008100178
0.0008040396
0.0007963597
0.0007868768
0.0007755638
0.000762405
0.0007472722
0.0007300874
0.0007107597
0.0006892183
0.000665469
0.0006409191
0.0006692232
0.0006940118
0.0007169397
0.0007373947
0.0007555912
0.0007716475
0.0007856756
0.0007978071
0.0008082767
0.0008170849
0.0008241746
0.0008296911
0.0008338936
0.00083679
0.0008382936
0.0008383375
0.0008369704
0.0008342012
0.0008299567
0.0008241927
0.0008167869
0.0008076353
0.0007966905
0.0007839223
0.0007692087
0.000752456
0.0007335723
0.000712476
0.0006891575
0.0006649814
0.0006928145
0.0007172257
0.0007397308
0.000759711
0.0007773955
0.0007929332
0.0008064516
0.0008180783
0.0008280786
0.0008364485
0.0008431751
0.0008484207
0.0008524123
0.0008551617
0.000856585
0.0008566288
0.0008553338
0.0008527008
0.0008486452
0.0008431152
0.0008360048
0.000827211
0.0008166648
0.0008043197
0.0007900604
0.0007737846
0.0007553908
0.0007347854
0.0007119447
0.0006881972
0.0007141591
0.0007381416
0.0007601628
0.0007796258
0.0007967803
0.000811793
0.0008248038
0.0008359523
0.0008455045
0.0008534737
0.0008598666
0.0008648491
0.0008686335
0.000871239
0.0008725858
0.0008726327
0.0008714105
0.0008689155
0.0008650514
0.0008597589
0.0008529459
0.0008445115
0.0008343668
0.0008224466
0.0008086461
0.0007928546
0.0007749606
0.0007548583
0.0007325105
0.0007092106
0.0007332775
0.0007568222
0.0007783458
0.000797287
0.0008139144
0.0008284095
0.0008409239
0.0008516089
0.0008607254
0.0008683079
0.0008743791
0.0008791063
0.0008826905
0.0008851589
0.0008864367
0.0008864874
0.0008853385
0.0008829798
0.0008793049
0.0008742476
0.0008677264
0.0008596435
0.0008498923
0.0008383883
0.0008250391
0.000809726
0.0007923274
0.0007727265
0.0007508728
0.0007280251
0.0007502478
0.0007733614
0.0007943947
0.0008128259
0.0008289418
0.0008429371
0.0008549747
0.0008652155
0.0008739148
0.0008811286
0.0008868931
0.000891377
0.0008947721
0.0008971128
0.0008983299
0.0008983856
0.0008973103
0.0008950829
0.0008915906
0.0008867598
0.0008805184
0.0008727715
0.0008633964
0.0008522914
0.0008393756
0.0008245234
0.000807604
0.0007884898
0.0007671184
0.0007447145
0.0007651524
0.0007878562
0.0008084205
0.0008263662
0.0008419969
0.00085552
0.0008671086
0.0008769317
0.0008852415
0.0008921096
0.0008975891
0.000901845
0.0009050652
0.000907289
0.0009084531
0.0009085148
0.0009075107
0.0009054081
0.0009020877
0.0008974696
0.0008914906
0.0008840576
0.0008750331
0.0008643017
0.0008517926
0.0008373744
0.0008209082
0.0008022564
0.0007813451
0.0007593667
0.0007780934
0.0008004126
0.000820538
0.0008380321
0.0008532137
0.0008663004
0.0008774747
0.0008869131
0.0008948667
0.0009014172
0.0009066362
0.0009106844
0.0009137472
0.0009158683
0.0009169849
0.0009170546
0.0009161187
0.0009141328
0.0009109708
0.0009065478
0.0009008086
0.0008936619
0.0008849571
0.000874567
0.000862431
0.0008484119
0.0008323632
0.0008141401
0.0007936592
0.0007720809
0.0007892623
0.0008112255
0.0008309409
0.0008480116
0.000862772
0.0008754506
0.0008862396
0.000895322
0.0009029479
0.0009092063
0.0009141864
0.0009180455
0.0009209663
0.0009229972
0.0009240719
0.0009241521
0.0009232818
0.0009214063
0.0009183922
0.00091415
0.0009086324
0.0009017482
0.0008933372
0.0008832625
0.000871473
0.0008578273
0.0008421707
0.0008243492
0.0008042691
0.000783065
0.0007986621
0.0008203013
0.0008396488
0.0008563418
0.0008707277
0.0008830442
0.0008934906
0.0009022561
0.0009095913
0.0009155922
0.0009203616
0.0009240556
0.0009268537
0.000928809
0.0009298489
0.0009299422
0.0009291317
0.000927357
0.0009244751
0.0009203929
0.0009150708
0.0009084176
0.0009002665
0.0008904697
0.0008789858
0.0008656683
0.0008503574
0.0008328924
0.0008131709
0.0007923024
0.0008064105
0.0008276481
0.0008466872
0.0008630667
0.0008771411
0.0008891558
0.0008993174
0.0009078199
0.0009149132
0.0009207004
0.0009252941
0.0009288515
0.0009315497
0.0009334439
0.0009344578
0.0009345656
0.0009338074
0.00093212
0.0009293506
0.0009254031
0.0009202427
0.0009137786
0.0009058364
0.0008962487
0.0008850117
0.0008719632
0.0008569364
0.0008397645
0.0008203399
0.0007997636
0.0008226967
0.0008335581
0.000852187
0.0008683128
0.0008821381
0.000893911
0.0009038429
0.0009121337
0.0009190323
0.0009246504
0.0009291015
0.0009325512
0.0009351725
0.0009370188
0.0009380155
0.0009381398
0.0009374274
0.0009358119
0.0009331338
0.0009292927
0.000924258
0.0009179407
0.0009101141
0.0009002429
0.0008891505
0.0008763111
0.0008615086
0.0008445708
0.0008254262
0.0008055078
0.0008276188
0.000838602
0.0008563386
0.0008722212
0.0008858472
0.0008974291
0.0009071809
0.0009153061
0.000922053
0.0009275397
0.0009318808
0.0009352481
0.0009378129
0.0009396236
0.0009406087
0.0009407472
0.0009400715
0.0009385131
0.0009359085
0.000932151
0.0009272117
0.0009209602
0.0009123428
0.0008921203
0.0008801265
0.0008674006
0.0008527755
0.0008360695
0.0008179776
0.0008082077
0.001020178
0.0008514096
0.0008595074
0.0008748346
0.0008883066
0.0008997549
0.0009093813
0.0009173919
0.0009240344
0.0009294314
0.0009336971
0.0009370066
0.000939532
0.0009413184
0.0009422963
0.000942446
0.0009417968
0.000940279
0.0009377267
0.0009340275
0.0009291394
0.0009225072
0.0009034898
0.0006930978
0.0006602474
0.0006470504
0.0006325555
0.0006163978
0.000607995
0.0007775455
0.001032034
0.0008537294
0.0008609292
0.0008761363
0.0008895345
0.0009009143
0.0009104767
0.0009184275
0.0009250142
0.0009303636
0.00093459
0.0009378689
0.0009403738
0.0009421482
0.0009431229
0.0009432788
0.0009426435
0.000941147
0.0009386218
0.0009349525
0.000930098
0.0009234579
0.0009035674
0.0006827334
0.0006488832
0.0006356926
0.0006212463
0.0006047483
0.0005868686
0.0005773007
0.001032466
0.0008537651
0.0008609221
0.0008761269
0.0008895251
0.0009009048
0.0009104668
0.0009184172
0.0009250034
0.0009303524
0.0009345783
0.0009378569
0.0009403612
0.000942135
0.0009431093
0.0009432646
0.000942629
0.0009411321
0.0009386065
0.0009349367
0.0009300818
0.0009234383
0.0009034971
0.0006822015
0.000648299
0.0006351049
0.0006206565
0.0006041112
0.0005853655
0.0005658237
0.001030487
0.0008522518
0.0008595262
0.0008748079
0.0008882779
0.000899726
0.0009093522
0.0009173623
0.0009240038
0.0009293996
0.0009336654
0.0009369721
0.0009394958
0.0009412805
0.000942257
0.0009424052
0.0009417548
0.000940236
0.0009376828
0.0009339822
0.0009290913
0.0009224047
0.0009024167
0.0006810726
0.0006471143
0.0006338595
0.0006193458
0.0006027284
0.000583863
0.0005638089
0.001017137
0.0008484857
0.0008567204
0.0008721878
0.0008857977
0.0008973784
0.0009071293
0.0009152535
0.0009219993
0.0009274882
0.0009320014
0.0009351932
0.0009377521
0.0009395602
0.000940543
0.0009406792
0.0009400016