/*--------------------------------*- C++ -*----------------------------------*\
| =========                 |                                                 |
| \\      /  F ield         | OpenFOAM: The Open Source CFD Toolbox           |
|  \\    /   O peration     | Version:  2506                                  |
|   \\  /    A nd           | Website:  www.openfoam.com                      |
|    \\/     M anipulation  |                                                 |
\*---------------------------------------------------------------------------*/
FoamFile
{
    version     2.0;
    format      ascii;
    arch        "LSB;label=32;scalar=64";
    class       volScalarField;
    location    "500/air";
    object      epsilon;
}
// * * * * * * * * * * * * * * * * * * * * * * * * * * * * * * * * * * * * * //

dimensions      [0 2 -3 0 0 0 0];

internalField   nonuniform List<scalar> 
33752
(
0.0535346
0.02227418
0.01987653
0.0202883
0.02120724
0.02223627
0.02324191
0.02416971
0.0250001
0.02573053
0.02636739
0.02692226
0.02741015
0.0278475
0.0282493
0.02862658
0.02898582
0.02933017
0.02966118
0.02998012
0.03028833
0.03058716
0.03087759
0.0311602
0.03143544
0.03170426
0.03196918
0.03223662
0.03252048
0.03280886
0.05335467
0.02237993
0.02002087
0.02041085
0.02127707
0.02224358
0.02318859
0.02406243
0.02484665
0.02553836
0.02614304
0.02667117
0.02713635
0.02755363
0.02793686
0.02829665
0.0286396
0.02896933
0.02928784
0.02959653
0.02989668
0.03018935
0.03047529
0.03075509
0.03102976
0.03130183
0.03157716
0.0318683
0.03220169
0.03258129
0.05337535
0.02261557
0.02026595
0.0206365
0.02145192
0.02235184
0.02322828
0.02403824
0.02476544
0.02540716
0.02596828
0.02645833
0.02688985
0.02727672
0.0276321
0.02796644
0.0282869
0.02859781
0.02890173
0.02920027
0.02949444
0.0297848
0.03007155
0.03035498
0.03063634
0.03091923
0.03121167
0.03152968
0.0319034
0.03232882
0.05341619
0.02283199
0.02049279
0.02085797
0.02163994
0.02248701
0.02330268
0.0240512
0.02471988
0.02530747
0.02581926
0.02626475
0.02665609
0.02700669
0.02732949
0.02763532
0.02793215
0.02822525
0.02851775
0.02881119
0.029106
0.02940173
0.02969758
0.029993
0.03028883
0.03058872
0.03090119
0.03124284
0.03164329
0.03208884
0.05345264
0.02300316
0.02067036
0.02103746
0.0218005
0.02260958
0.02337556
0.02406889
0.02468089
0.02521264
0.02567091
0.02606609
0.02641093
0.02671931
0.02700473
0.02727892
0.02755055
0.02782633
0.0281102
0.0284035
0.02870562
0.02901458
0.02932782
0.02964321
0.02996026
0.03028193
0.03061616
0.03097856
0.03139665
0.03184963
0.05348585
0.02313542
0.02079617
0.02116479
0.02191638
0.0226978
0.0234234
0.02406786
0.02462597
0.02510143
0.02550301
0.0258428
0.02613508
0.02639492
0.02663673
0.02687454
0.02712008
0.02738063
0.02765999
0.02795875
0.0282748
0.02860413
0.02894208
0.02928455
0.02962955
0.02997816
0.03033672
0.03071905
0.03115025
0.03160454
0.05351775
0.02323875
0.02087773
0.02124309
0.02198507
0.02274414
0.02343522
0.02403532
0.02454172
0.02496043
0.02530242
0.02558195
0.02581482
0.02601914
0.02621367
0.02641409
0.02663337
0.02688028
0.027159
0.02746918
0.0278066
0.02816454
0.02853538
0.02891227
0.02929073
0.02967018
0.03005513
0.03045734
0.03089943
0.0313518
0.05354841
0.02332083
0.02092517
0.02128119
0.02201222
0.02275059
0.02340996
0.02396814
0.02442383
0.02478484
0.02506416
0.02527769
0.02544614
0.02559085
0.02573308
0.02589205
0.02608328
0.0263175
0.02659937
0.02692727
0.02729418
0.02768957
0.02810204
0.02852129
0.02894
0.02935528
0.02976969
0.03019306
0.03064582
0.03109552
0.05357736
0.02338697
0.02094791
0.02128914
0.02200669
0.02272411
0.02335271
0.02386998
0.02427519
0.02457729
0.02479046
0.02493527
0.02503462
0.02511382
0.02519816
0.02531097
0.02547147
0.02569329
0.02598178
0.02633386
0.02673896
0.02718139
0.02764464
0.02811417
0.02857947
0.02903528
0.0294823
0.02992863
0.0303929
0.03084037
0.05360404
0.02344058
0.02095386
0.02127642
0.02197818
0.02267394
0.02327214
0.02374923
0.02410435
0.02434673
0.02449357
0.0245668
0.02459302
0.02460137
0.02462211
0.02468478
0.02483024
0.02505328
0.02535068
0.02571826
0.02615309
0.02664955
0.02717253
0.02769997
0.02821743
0.02871761
0.02919973
0.02967058
0.03014737
0.03059361
0.05362777
0.02348372
0.02094937
0.02125145
0.02193617
0.02261018
0.0231789
0.02361738
0.02392403
0.02410913
0.02419029
0.02419182
0.02414302
0.02407758
0.02405897
0.02411635
0.02424653
0.02446253
0.02476959
0.02516221
0.02562515
0.02613742
0.02670449
0.0272937
0.02786709
0.02841374
0.028932
0.02942798
0.02991796
0.03036409
0.05364785
0.02351747
0.02093942
0.0212214
0.02188937
0.02254282
0.02308439
0.02348758
0.02375035
0.02388252
0.02390258
0.02383615
0.02371513
0.02361148
0.02357102
0.02359212
0.02369764
0.02390571
0.02422263
0.0246414
0.0251432
0.02570147
0.02628894
0.02691845
0.027546
0.02813818
0.02869138
0.0292115
0.02971447
0.03016141
0.05366363
0.02354233
0.02092783
0.02119217
0.02184529
0.02248098
0.02299954
0.02337321
0.02359906
0.02368661
0.02365458
0.02352929
0.02335366
0.02323603
0.02315587
0.02314227
0.02322571
0.02342686
0.02375258
0.02419453
0.02473093
0.02533125
0.02596228
0.02660161
0.02727454
0.02790708
0.02849102
0.0290323
0.02954684
0.02999514
0.05367453
0.02355837
0.02091733
0.02116821
0.02180987
0.02243214
0.02293364
0.02328564
0.02348448
0.02353937
0.02346894
0.02330022
0.02311021
0.02296009
0.02284742
0.02280778
0.0228747
0.02307059
0.02340279
0.02386202
0.02442424
0.02505588
0.02572029
0.0263845
0.02707451
0.02773658
0.02834378
0.02890099
0.02942438
0.02987396
0.05368008
0.02356565
0.02090971
0.02115249
0.02178715
0.02240145
0.02289321
0.02323312
0.02341717
0.02345437
0.02336322
0.02317112
0.02297453
0.02280603
0.02267564
0.02262188
0.02267975
0.02287261
0.02320811
0.02367651
0.02425253
0.02490095
0.02558334
0.02626439
0.02696011
0.0276379
0.02825776
0.02882372
0.02935209
0.02980326
0.05368006
0.02356402
0.02090569
0.02114634
0.02177897
0.02239136
0.02288137
0.02321975
0.02340254
0.02343877
0.02334695
0.02315447
0.02295768
0.02278908
0.02265868
0.0226049
0.02266268
0.02285533
0.02319054
0.0236586
0.0242343
0.02488246
0.02556472
0.02624577
0.02694149
0.02761942
0.02823948
0.02880562
0.02933412
0.0297854
0.05367449
0.02355338
0.02090502
0.02114939
0.02178487
0.02240128
0.02289745
0.02324478
0.02343973
0.02349162
0.02341909
0.02324912
0.02305845
0.02290798
0.0227952
0.02275547
0.02282214
0.02301753
0.02334899
0.02380737
0.02436879
0.02499986
0.02566405
0.02632843
0.0270186
0.02768122
0.02828905
0.02884684
0.02937064
0.02982096
0.05366358
0.02353361
0.02090647
0.02115959
0.02180204
0.02242765
0.02293699
0.02330257
0.02352164
0.02360391
0.0235681
0.02344046
0.02326364
0.02314515
0.02306466
0.02305088
0.02313398
0.02333453
0.02365938
0.02410035
0.02463591
0.02523578
0.02586692
0.02650692
0.02718095
0.02781478
0.02839997
0.02894228
0.02945747
0.0299063
0.05364772
0.02350459
0.0209078
0.02117324
0.02182551
0.02246415
0.02299217
0.02338342
0.0236362
0.02376047
0.02377476
0.02370456
0.02358149
0.02347637
0.02343525
0.02345609
0.02356138
0.02376905
0.02408541
0.02450365
0.02500519
0.02556374
0.02615215
0.02678298
0.02741256
0.02800694
0.02856219
0.02908394
0.02958778
0.03003503
0.05362757
0.02346585
0.02090568
0.02118509
0.02184837
0.02250218
0.02305245
0.02347468
0.02376774
0.02394199
0.02401513
0.02401127
0.02395932
0.02389246
0.02387226
0.02392928
0.02405955
0.02427575
0.02458312
0.02497631
0.02544026
0.02595427
0.02652305
0.02711495
0.02769161
0.02824166
0.02876302
0.02926134
0.02975242
0.0301983
0.05360379
0.0234167
0.02089576
0.02118846
0.0218621
0.02253149
0.02310572
0.02356184
0.02389937
0.02412794
0.02426438
0.02433056
0.02435254
0.02435887
0.02437913
0.02444233
0.02458693
0.02481089
0.02510996
0.02547999
0.02591782
0.02641744
0.02694446
0.02747669
0.02799932
0.02850458
0.02899117
0.02946534
0.02994364
0.03038944
0.05357707
0.02335579
0.02087242
0.02117528
0.0218569
0.02254091
0.02313945
0.02363073
0.02401446
0.02429958
0.02450049
0.02463684
0.02473121
0.02480809
0.02489204
0.02500577
0.0251681
0.02539237
0.02568395
0.02603994
0.02644988
0.02689821
0.02736829
0.02784525
0.02831812
0.0287811
0.02923429
0.02968515
0.03015149
0.03059849
0.05354806
0.02328077
0.02082865
0.02113616
0.02182211
0.02251907
0.02314185
0.02366907
0.02409977
0.02444161
0.02470701
0.02491158
0.02507504
0.02521779
0.02536021
0.02552094
0.02571514
0.02595344
0.02624054
0.02657497
0.02694972
0.0273542
0.02777667
0.02820639
0.02863544
0.0290603
0.02948284
0.02991213
0.03036747
0.03081686
0.05351731
0.02318792
0.02075581
0.02106045
0.02174662
0.02245541
0.02310328
0.02366806
0.02414705
0.02454566
0.02487395
0.025145
0.02537355
0.02557729
0.02577316
0.02597661
0.02620024
0.02645293
0.0267391
0.0270585
0.02740689
0.02777725
0.02816149
0.02855213
0.02894393
0.02933559
0.02973081
0.03014056
0.03058642
0.03103866
0.05348528
0.02307174
0.02064362
0.02093676
0.02162003
0.02234167
0.023018
0.02362428
0.02415459
0.02461123
0.0250013
0.0253353
0.02562594
0.02588657
0.02613126
0.02637367
0.02662494
0.02689272
0.02718141
0.02749188
0.02782187
0.02816693
0.02852168
0.02888118
0.02924257
0.02960606
0.02997712
0.03036866
0.03080467
0.03125909
0.05345214
0.02292466
0.02048097
0.02075469
0.02143511
0.02217491
0.02288724
0.02354232
0.02412936
0.02464671
0.02509846
0.02549271
0.02584023
0.02615311
0.02644362
0.02672279
0.02700035
0.02728398
0.02757833
0.02788517
0.02820368
0.02853125
0.02886441
0.02919994
0.02953633
0.02987549
0.03022441
0.03059769
0.03102167
0.03147517
0.053417
0.02273742
0.02025915
0.02050956
0.02119342
0.02196303
0.02272395
0.02343838
0.0240893
0.02467079
0.02518427
0.0256362
0.02603624
0.02639562
0.02672583
0.02703756
0.02733996
0.0276401
0.02794268
0.02825008
0.02856257
0.02887891
0.02919708
0.02951521
0.02983287
0.03015252
0.03048163
0.0308357
0.03124307
0.03168957
0.05337903
0.02250328
0.01997908
0.02021115
0.02091378
0.02173156
0.02255708
0.02334226
0.02406351
0.02471127
0.02528525
0.02579131
0.026239
0.02663957
0.0270045
0.02734445
0.0276686
0.02798415
0.02829614
0.02860751
0.02891928
0.02923101
0.02954146
0.0298493
0.03015428
0.03045867
0.0307693
0.03110105
0.03148271
0.03190962
0.0533618
0.02224513
0.01967182
0.01990208
0.02064563
0.02153087
0.02243382
0.02329618
0.02408926
0.02480133
0.02543165
0.02598647
0.02647598
0.02691208
0.02730679
0.02767122
0.02801489
0.0283454
0.02866821
0.02898673
0.0293025
0.02961558
0.02992505
0.03022964
0.03052864
0.03082308
0.03111753
0.03142336
0.03176567
0.03214757
0.05354482
0.02211524
0.01947224
0.01971243
0.02050546
0.02145763
0.02243072
0.02335932
0.02421149
0.02497455
0.02564792
0.02623856
0.02675758
0.02721782
0.02763213
0.02801237
0.0283687
0.02870929
0.0290401
0.029365
0.02968591
0.03000316
0.03031592
0.03062273
0.0309221
0.03121337
0.03149771
0.03178039
0.03207414
0.03236647
0.01338531
0.01020195
0.008927378
0.008642443
0.008715382
0.008916969
0.009159108
0.00940479
0.009638149
0.009852996
0.01004789
0.01022387
0.0103833
0.0105292
0.01066453
0.01079179
0.01091278
0.01102866
0.01114014
0.01124762
0.01135132
0.01145128
0.01154734
0.01163919
0.01172637
0.01180836
0.0118847
0.01195503
0.01201849
0.01206787
0.01316568
0.01014245
0.008925561
0.00865216
0.008722657
0.008917032
0.009150566
0.009387716
0.009613206
0.00982103
0.01000975
0.01018034
0.01033505
0.01047675
0.01060831
0.01073219
0.0108502
0.01096356
0.011073
0.01117895
0.01128158
0.01138087
0.0114766
0.01156842
0.01165597
0.01173899
0.01181755
0.01189229
0.01196385
0.01202492
0.01311539
0.01014971
0.00895349
0.008681898
0.008745697
0.008929387
0.009150913
0.00937617
0.009590511
0.009788141
0.009967656
0.01012997
0.01027727
0.01041232
0.01053795
0.01065664
0.01077029
0.01088021
0.01098721
0.01109171
0.01119381
0.01129333
0.01138995
0.01148324
0.01157283
0.01165865
0.01174121
0.01182174
0.01190131
0.01197063
0.01311023
0.01018415
0.008995505
0.008720753
0.008776065
0.008948153
0.009156727
0.009368848
0.009570482
0.009756118
0.009924475
0.01007652
0.01021447
0.01034111
0.01045933
0.01057173
0.01068037
0.01078671
0.01089165
0.01099556
0.01109838
0.01119974
0.01129904
0.01139566
0.01148911
0.0115793
0.01166682
0.01175303
0.01183872
0.01191276
0.01311399
0.01022235
0.009037404
0.008758178
0.008805177
0.008966267
0.009162246
0.00936107
0.009549299
0.009721784
0.009877486
0.01001757
0.01014442
0.010261
0.01037042
0.01047551
0.01057858
0.01068131
0.01078472
0.01088908
0.01099411
0.01109908
0.011203
0.01130488
0.01140393
0.01149984
0.01159305
0.01168469
0.01177502
0.01185168
0.01311904
0.01025649
0.009072441
0.00878817
0.008827487
0.008978589
0.00916279
0.009348647
0.00952323
0.009681788
0.009823618
0.009950207
0.01006427
0.01016912
0.01026822
0.01036484
0.01046179
0.01056105
0.01066362
0.01076965
0.01087849
0.01098892
0.01109942
0.01120849
0.01131488
0.01141788
0.01151756
0.01161466
0.01170892
0.01178716
0.01312373
0.01028483
0.009098749
0.008808649
0.008840646
0.008982569
0.009155752
0.009329054
0.009489916
0.009633957
0.009760856
0.009872514
0.009972081
0.01006347
0.01015087
0.01023829
0.01032898
0.0104251
0.01052772
0.01063674
0.01075103
0.01086878
0.01098778
0.01110582
0.01122109
0.01133241
0.01143937
0.01154221
0.01164016
0.01171953
0.01312769
0.01030759
0.009116805
0.008819938
0.008844634
0.008977847
0.009140542
0.00930161
0.009448699
0.009577725
0.00968874
0.009784092
0.009867659
0.009944234
0.01001892
0.01009637
0.01018045
0.01027367
0.01037709
0.01049034
0.01061176
0.01073878
0.01086829
0.01099723
0.01112303
0.01124389
0.0113589
0.01146787
0.01156955
0.01164998
0.01313089
0.0103255
0.009127989
0.008823529
0.008840789
0.008965536
0.009118103
0.009267194
0.009400506
0.009514151
0.009608505
0.009686562
0.00975306
0.009813745
0.009874714
0.009941661
0.0100196
0.01011067
0.01021562
0.01033374
0.01046311
0.01060085
0.01074257
0.01088411
0.01102193
0.01115351
0.01127741
0.01139301
0.01149868
0.01158025
0.01313338
0.01033936
0.0091339
0.008821369
0.008831137
0.008947644
0.009090443
0.009227899
0.009347624
0.009445824
0.009523271
0.009583586
0.009632367
0.00967667
0.009724621
0.009782989
0.009861372
0.009954343
0.01006122
0.01018079
0.01031342
0.01046068
0.01061466
0.01076968
0.01092053
0.01106367
0.01119706
0.01131967
0.01142956
0.01151247
0.01313528
0.01034984
0.00913607
0.008815487
0.00881797
0.008926643
0.009060231
0.009186676
0.009293414
0.009376734
0.009437686
0.009480495
0.009511968
0.009542289
0.009587322
0.009648711
0.009725334
0.009817849
0.009926625
0.0100506
0.01018744
0.01033399
0.01049253
0.01065916
0.01082292
0.0109778
0.01112082
0.01125052
0.01136475
0.01144911
0.01313666
0.01035751
0.009135846
0.008807782
0.008803572
0.008905144
0.009030439
0.009146962
0.009241956
0.009311673
0.009357428
0.009384138
0.009401132
0.009428824
0.009472667
0.009530086
0.009603124
0.009694347
0.009804808
0.00993333
0.0100766
0.01022997
0.0103896
0.01055984
0.01073434
0.01090012
0.01105223
0.01118866
0.01130702
0.01139289
0.0131376
0.01036277
0.009134328
0.008799904
0.008790018
0.008885621
0.00900399
0.009112249
0.009197417
0.009255719
0.009288654
0.009302219
0.009310972
0.009339282
0.009378487
0.009430511
0.009499599
0.009589359
0.009701222
0.009833874
0.009983405
0.01014412
0.01031013
0.01047847
0.01066035
0.01083511
0.010995
0.01113723
0.01125921
0.01134644
0.01313815
0.0103659
0.009132351
0.00879315
0.008778996
0.008870147
0.008983406
0.009085601
0.009163578
0.00921351
0.009237117
0.009241851
0.009250829
0.009274975
0.009309105
0.009356475
0.009422327
0.009510859
0.00962374
0.00975954
0.009913921
0.01008048
0.01025227
0.01042446
0.01060663
0.01078707
0.01095258
0.01109911
0.0112238
0.0113121
0.01313833
0.01036706
0.009130458
0.008788393
0.008771667
0.00886018
0.008970486
0.009069255
0.009143238
0.009188571
0.009207109
0.00920716
0.00921657
0.009238285
0.009269413
0.009314114
0.009378123
0.009465938
0.009579352
0.009716875
0.009873931
0.01004375
0.01021892
0.01039404
0.01057564
0.01075892
0.01092745
0.01107634
0.01120254
0.01129151
0.01313815
0.01036631
0.00912888
0.008786019
0.00876856
0.008856398
0.008966091
0.009064313
0.009137822
0.009182757
0.009200974
0.009200778
0.009210003
0.009231569
0.009262588
0.009307214
0.009371172
0.009458956
0.009572358
0.009709892
0.009866987
0.01003688
0.01021215
0.01038739
0.01056909
0.0107525
0.01092116
0.01107017
0.01119646
0.0112855
0.01313762
0.01036361
0.00912753
0.008785907
0.008769523
0.008858623
0.008970016
0.009070548
0.009147084
0.009195802
0.009218431
0.009222414
0.00923084
0.009254533
0.009288335
0.009335485
0.009401201
0.009489666
0.009602545
0.009738418
0.009892957
0.01005977
0.0102319
0.01040447
0.01058696
0.01076781
0.01093373
0.01108063
0.0112056
0.01129411
0.01313669
0.01035881
0.009126002
0.008787418
0.008773712
0.008865808
0.008980994
0.009086417
0.009169122
0.009225355
0.009256616
0.009268888
0.009276691
0.009304233
0.009342884
0.009394556
0.009463461
0.00955318
0.009665137
0.00979802
0.009947931
0.01010917
0.01027583
0.01044478
0.0106274
0.01080293
0.01096356
0.01110641
0.01122885
0.01131638
0.01313531
0.01035167
0.009123582
0.008789434
0.008779661
0.008876148
0.008996838
0.00910927
0.009200716
0.009267461
0.009310804
0.00933564
0.009351242
0.009377867
0.009420937
0.009477905
0.009550772
0.009642073
0.00975284
0.009881888
0.0100259
0.01018021
0.01034091
0.0105121
0.01068777
0.01085474
0.01100796
0.01114531
0.01126432
0.01135055
0.01313342
0.01034181
0.009119258
0.00879041
0.008785384
0.008887232
0.009014678
0.009135696
0.009237755
0.009317151
0.009374947
0.009415307
0.009444975
0.009474022
0.00951806
0.00957896
0.009655472
0.009748282
0.009857706
0.009982652
0.01012073
0.01026876
0.01042869
0.01059693
0.01076241
0.01091898
0.01106352
0.01119447
0.01130955
0.01139432
0.01313093
0.01032873
0.009111748
0.008788449
0.008788511
0.008896275
0.009031282
0.009161923
0.009275824
0.009369197
0.009442755
0.009500111
0.009546739
0.009589602
0.009636706
0.009694733
0.009772874
0.00986647
0.009974439
0.01009552
0.01022998
0.01037924
0.01053541
0.01069276
0.01084598
0.01099139
0.0111268
0.01125104
0.01136202
0.01144541
0.01312774
0.01031181
0.009099523
0.008781394
0.008786462
0.008900366
0.009043414
0.009184315
0.009310742
0.00941875
0.009508658
0.009583331
0.009647475
0.009706651
0.009766853
0.009833686
0.009912062
0.01000413
0.01011062
0.01023074
0.01036253
0.01050303
0.01064776
0.01079244
0.01093337
0.01106789
0.01119438
0.01131203
0.01141905
0.01150122
0.01312373
0.01029027
0.009080862
0.008766951
0.008776644
0.008896754
0.0090482
0.009199827
0.00933918
0.009462029
0.009568257
0.009660082
0.009741219
0.009816409
0.009890523
0.009968149
0.01005309
0.01014782
0.01025338
0.01036933
0.01049397
0.01062462
0.01075803
0.01089099
0.01102071
0.01114523
0.01126343
0.01137492
0.01147824
0.01155941
0.01311883
0.01026322
0.009053963
0.008742884
0.008756727
0.008883191
0.009043522
0.009206426
0.009359087
0.009496824
0.009619023
0.009727333
0.009824709
0.00991492
0.01000207
0.01009008
0.01018207
0.01028023
0.01038561
0.01049808
0.01061644
0.01073872
0.01086254
0.01098549
0.01110553
0.01122126
0.01133204
0.01143789
0.01153782
0.01161808
0.01311306
0.01022987
0.009017238
0.008707389
0.008725077
0.008858399
0.009028488
0.009203525
0.009370054
0.009522774
0.009660511
0.009784391
0.009896857
0.01000101
0.01010025
0.01019778
0.01029645
0.01039821
0.01050413
0.0106143
0.01072799
0.01084382
0.01096005
0.01107491
0.0111869
0.01129506
0.0113992
0.01149982
0.0115964
0.01167569
0.01310686
0.01019002
0.008969978
0.008659826
0.008681498
0.008822778
0.009004046
0.009192462
0.009373626
0.00954149
0.009694318
0.009832795
0.009958982
0.01007563
0.01018573
0.01029206
0.01039709
0.01050262
0.01060975
0.01071877
0.0108293
0.01094041
0.01105086
0.01115934
0.01126477
0.01136655
0.01146482
0.01156045
0.01165344
0.01173131
0.01310207
0.01014553
0.008913827
0.008602053
0.008628416
0.008779379
0.008973695
0.009176932
0.009373486
0.009556523
0.009723828
0.009875802
0.0100143
0.01014188
0.01026133
0.01037527
0.01048598
0.01059518
0.01070397
0.01081279
0.01092153
0.01102957
0.01113602
0.0112399
0.01134038
0.01143704
0.01153015
0.01162079
0.01170944
0.01178484
0.01310685
0.01010453
0.00885545
0.008540368
0.008572308
0.008734816
0.00894388
0.009162937
0.009375072
0.009572761
0.009753487
0.009917543
0.01006676
0.01020367
0.01033102
0.01045138
0.01056698
0.01067954
0.01079023
0.01089961
0.01100774
0.01111422
0.01121838
0.01131937
0.01141646
0.01150921
0.01159777
0.01168308
0.0117659
0.01183674
0.0131592
0.0100915
0.008809996
0.008487393
0.008524726
0.008699384
0.008923337
0.009157594
0.009384071
0.009594761
0.009787019
0.00996118
0.01011916
0.01026359
0.01039725
0.01052277
0.01064241
0.01075795
0.01087062
0.01098111
0.01108958
0.01119579
0.01129915
0.01139887
0.01149416
0.01158435
0.01166918
0.01174897
0.01182401
0.01188679
0.01338672
0.01015026
0.008798121
0.008460498
0.008500614
0.008684452
0.00891957
0.009164957
0.00940171
0.009621526
0.009821707
0.01000265
0.01016638
0.01031562
0.01045326
0.01058202
0.01070422
0.01082173
0.01093587
0.0110474
0.01115658
0.01126324
0.01136681
0.01146653
0.01156148
0.01165073
0.01173345
0.01180896
0.0118761
0.01192739
0.009384431
0.00789779
0.007021796
0.006622532
0.00647896
0.006463204
0.006509237
0.006583871
0.006670453
0.006760535
0.006849824
0.006936239
0.007018951
0.007097856
0.00717321
0.007245395
0.007314764
0.007381578
0.007445991
0.007508055
0.007567727
0.007624879
0.007679295
0.007730679
0.007778664
0.007822822
0.007862643
0.007897427
0.007925827
0.00794427
0.009300308
0.007815653
0.006966933
0.006588176
0.006456732
0.006447158
0.006495971
0.006571538
0.006658037
0.006747473
0.006835816
0.006921148
0.007002741
0.00708055
0.00715487
0.007226112
0.007294658
0.007360793
0.007424685
0.007486387
0.007545848
0.00760292
0.007657372
0.007708904
0.007757172
0.007801811
0.007842442
0.007878555
0.00790894
0.007929571
0.009262144
0.007767757
0.006926658
0.006557329
0.006433079
0.006427682
0.006478404
0.006554384
0.006640313
0.006728541
0.006815287
0.006898821
0.006978554
0.00705454
0.00712715
0.00719686
0.007264113
0.00732924
0.007392437
0.007453759
0.007513136
0.007570385
0.007625241
0.007677383
0.007726475
0.007772209
0.007814311
0.007852383
0.007885156
0.007907867
0.009250567
0.007754096
0.006911747
0.00654203
0.006417811
0.00641213
0.006462073
0.006536788
0.006621009
0.006707153
0.006791549
0.006872588
0.006949801
0.007023351
0.007093712
0.007161459
0.00722712
0.007291099
0.007353627
0.007414758
0.007474385
0.007532268
0.007588074
0.007641424
0.007691948
0.007739331
0.007783314
0.007823482
0.007858372
0.007882595
0.009249929
0.007758
0.006912955
0.006538868
0.006410653
0.006401492
0.006448298
0.006520026
0.006601246
0.006684293
0.006765488
0.006843276
0.006917277
0.006987767
0.007055346
0.00712072
0.007184538
0.007247292
0.007309259
0.007370481
0.00743079
0.007489855
0.00754723
0.007602429
0.007654985
0.007704508
0.007750665
0.007792931
0.007829613
0.007854895
0.009253354
0.00776864
0.006921172
0.006541762
0.006408093
0.006393942
0.006436223
0.006503743
0.006580911
0.006659945
0.006737113
0.006810881
0.006880946
0.00694771
0.007011934
0.007074504
0.007136238
0.007197738
0.007259308
0.00732096
0.007382436
0.007443264
0.007502847
0.007560536
0.007615714
0.007667844
0.007716455
0.007760859
0.007799143
0.007825227
0.009257979
0.007780685
0.006930944
0.006546235
0.006406888
0.006387309
0.00642448
0.006487125
0.006559543
0.006633853
0.00670628
0.006775303
0.00684071
0.006903072
0.006963387
0.00702278
0.007082263
0.007142541
0.007203933
0.007266385
0.007329514
0.007392691
0.007455109
0.007515904
0.007574253
0.00762943
0.007680777
0.007727419
0.007767248
0.007794023
0.009262609
0.007791824
0.006939639
0.006549836
0.006405027
0.006380094
0.006412049
0.006469558
0.006536837
0.006605938
0.006673054
0.006736699
0.006796802
0.006854176
0.006910124
0.006966086
0.007023283
0.007082473
0.007143927
0.007207503
0.007272707
0.007338732
0.007404539
0.007469
0.007531027
0.007589663
0.007644031
0.007693056
0.007734459
0.00776191
0.00926676
0.007801211
0.006946284
0.006551587
0.00640165
0.00637164
0.006398527
0.006450895
0.006512886
0.006576496
0.006637902
0.006695695
0.006750006
0.006801989
0.006853394
0.006905971
0.006961187
0.007019679
0.007081431
0.007146207
0.00721356
0.00728264
0.007352179
0.00742073
0.00748686
0.007549302
0.007606937
0.007658497
0.007701558
0.007729715
0.009270265
0.007808675
0.00695076
0.006551398
0.006396706
0.006361988
0.006384094
0.006431495
0.006488244
0.00654628
0.006601788
0.006653478
0.006701785
0.006748447
0.006795874
0.006846092
0.006900712
0.006959771
0.007021943
0.007087128
0.007155696
0.007227066
0.007299963
0.007372599
0.007443009
0.00750947
0.007570546
0.007624755
0.007669533
0.007698434
0.009273091
0.007814332
0.006953353
0.00654965
0.006390642
0.006351659
0.006369386
0.006412146
0.006463889
0.006516499
0.006566179
0.006611828
0.006654452
0.006696918
0.006743048
0.006794121
0.006849239
0.006908368
0.006971155
0.00703718
0.00710593
0.007176715
0.007251039
0.007326857
0.00740125
0.007471665
0.007536176
0.007593039
0.007639552
0.007669222
0.009275262
0.007818398
0.006954501
0.006546934
0.006384149
0.006341446
0.00635532
0.006393935
0.006441129
0.006488723
0.00653297
0.006573112
0.006611161
0.006652363
0.006698531
0.006748914
0.006803517
0.006862571
0.006925966
0.006993174
0.007063346
0.007135519
0.007209155
0.007286252
0.007363725
0.00743766
0.007505355
0.007564709
0.007612865
0.007643282
0.009276818
0.007821098
0.006954656
0.006543875
0.006377986
0.00633223
0.006342924
0.006378084
0.006421437
0.00646475
0.006504367
0.006540025
0.006575165
0.006616454
0.006661701
0.006710875
0.006764623
0.006823503
0.006887506
0.006956005
0.007027904
0.007101887
0.007176904
0.007253256
0.007332606
0.007409302
0.00747966
0.007541144
0.007590723
0.007621798
0.009277797
0.007822621
0.006954205
0.00654102
0.00637283
0.00632482
0.006333165
0.006365764
0.006406252
0.006446364
0.006482568
0.006515246
0.006549942
0.006590096
0.006634028
0.006681966
0.006734909
0.006793625
0.006858156
0.006927783
0.007001214
0.007076855
0.007153235
0.0072297
0.007309796
0.007388266
0.007460528
0.007523585
0.007574231
0.007605811
0.009278224
0.007823097
0.006953412
0.00653876
0.006369177
0.006319816
0.006326776
0.006357884
0.006396727
0.006435019
0.006469309
0.006500369
0.006534875
0.006574316
0.006617375
0.006664537
0.006716995
0.006775627
0.006840496
0.006910825
0.006985206
0.00706189
0.007139212
0.007216278
0.007296399
0.007375737
0.007449026
0.007512954
0.007564204
0.00759608
0.009278111
0.007822579
0.006952397
0.006537269
0.006367256
0.00631751
0.006324123
0.006354919
0.006393482
0.006431524
0.006465594
0.006496464
0.006530811
0.006570123
0.006613088
0.006660198
0.006712644
0.006771306
0.006836242
0.006906669
0.006981172
0.007057993
0.007135458
0.007212664
0.007292908
0.007372365
0.007445763
0.007509782
0.0075611
0.007593016
0.009277454
0.007821042
0.006951113
0.006536485
0.006366994
0.00631782
0.006325124
0.006356787
0.00639644
0.006435807
0.006471358
0.006503472
0.006537699
0.006577473
0.006621134
0.006668923
0.00672184
0.006780652
0.006845391
0.006915319
0.006989121
0.007065176
0.007141983
0.007218856
0.007299335
0.007378169
0.007450757
0.007514084
0.007564933
0.007596633
0.00927623
0.007818382
0.006949349
0.006536105
0.006368013
0.0063203
0.006329252
0.00636286
0.006404833
0.006446925
0.006485477
0.006520222
0.006554606
0.006595285
0.006640102
0.006689048
0.006742775
0.006801835
0.006866202
0.006935218
0.007007747
0.007082426
0.007158155
0.00723518
0.007315188
0.007392502
0.007463407
0.007525341
0.007575251
0.007606517
0.0092744
0.00781442
0.006946747
0.00653562
0.006369678
0.006324199
0.00633563
0.006372095
0.006417397
0.006463335
0.006506147
0.00654507
0.006582116
0.00662252
0.006668131
0.006718238
0.006772847
0.006832186
0.006896118
0.006964071
0.007035137
0.00710829
0.007182911
0.007260962
0.007339371
0.007414178
0.007482641
0.007542623
0.007591236
0.007621907
0.009271919
0.007808918
0.006942832
0.006534363
0.00637118
0.006328581
0.006343179
0.006383231
0.006432631
0.006483216
0.006531162
0.006575361
0.006616808
0.006658367
0.006703832
0.006754638
0.006809809
0.006869333
0.006932835
0.006999835
0.007069735
0.007141764
0.007217339
0.007294411
0.007370021
0.007441564
0.007507064
0.007564733
0.007611823
0.007641806
0.009268737
0.007801602
0.006937063
0.006531596
0.006371644
0.006332461
0.006350795
0.006395011
0.006449066
0.006504822
0.006558404
0.006608497
0.006655542
0.006701265
0.006748089
0.006798067
0.006852764
0.006912286
0.006975342
0.007041734
0.007111672
0.007184528
0.007258966
0.00733315
0.007405056
0.007472899
0.007535185
0.007590376
0.007635853
0.007665128
0.00926482
0.007792209
0.006928917
0.006526623
0.006370276
0.006334975
0.006357536
0.00640638
0.006465488
0.006526718
0.006586151
0.006642324
0.006695358
0.006746432
0.006797287
0.006849702
0.00690514
0.006964251
0.007027001
0.007093094
0.007162002
0.0072328
0.007304145
0.007374519
0.007442412
0.007506486
0.007565549
0.007618266
0.007662145
0.007690735
0.009260193
0.007780575
0.006918022
0.006518962
0.00636655
0.006335572
0.006362817
0.006416683
0.006481119
0.006547954
0.00661322
0.006675352
0.006734258
0.006790773
0.006846236
0.006902106
0.006959611
0.007019517
0.007082075
0.007147098
0.007214027
0.007281979
0.007349831
0.007416366
0.007480407
0.00754091
0.007596915
0.007647264
0.007689605
0.007717552
0.009255012
0.007766827
0.006904406
0.006508602
0.006360456
0.006334247
0.006366603
0.006425815
0.006495746
0.006568162
0.006639053
0.006706791
0.006771146
0.006832728
0.006892589
0.006951905
0.00701172
0.007072751
0.007135304
0.00719929
0.007264272
0.007329541
0.007394204
0.007457294
0.007517883
0.007575145
0.007628326
0.007676456
0.007717339
0.007744673
0.009249758
0.007751769
0.006888949
0.006496426
0.006352843
0.006331784
0.006369586
0.00643434
0.00650977
0.006587564
0.006663683
0.006736476
0.006805655
0.006871694
0.006935448
0.006997881
0.007059875
0.007122059
0.007184753
0.007247952
0.007311344
0.007374381
0.00743636
0.007496522
0.007554132
0.007608541
0.007659164
0.007705205
0.007744654
0.007771355
0.009245672
0.00773772
0.006874174
0.006484785
0.006345778
0.006329961
0.00637326
0.006443466
0.00652412
0.006606834
0.006687567
0.006764692
0.00683792
0.006907666