/*--------------------------------*- C++ -*----------------------------------*\
| =========                 |                                                 |
| \\      /  F ield         | OpenFOAM: The Open Source CFD Toolbox           |
|  \\    /   O peration     | Version:  2506                                  |
|   \\  /    A nd           | Website:  www.openfoam.com                      |
|    \\/     M anipulation  |                                                 |
\*---------------------------------------------------------------------------*/
FoamFile
{
    version     2.0;
    format      ascii;
    arch        "LSB;label=32;scalar=64";
    class       volScalarField;
    location    "500/air";
    object      nut;
}
// * * * * * * * * * * * * * * * * * * * * * * * * * * * * * * * * * * * * * //

dimensions      [0 2 -1 0 0 0 0];

internalField   nonuniform List<scalar> 
33752
(
0.009246726
0.006909665
0.006609131
0.006637859
0.006738613
0.006854865
0.006967005
0.007068364
0.007157256
0.007234112
0.007300169
0.007356936
0.007405951
0.007448662
0.007486435
0.007520532
0.007552002
0.007581616
0.007609848
0.007636967
0.00766311
0.007688355
0.007712748
0.007736323
0.007759124
0.007781251
0.007802941
0.007824744
0.007847805
0.007871142
0.009256213
0.006910723
0.006634587
0.006664513
0.006756074
0.006861955
0.006965368
0.00705981
0.007143324
0.007215999
0.007278777
0.007332948
0.007379888
0.007420935
0.007457374
0.007490386
0.007520961
0.007549822
0.007577427
0.007604034
0.007629779
0.007654734
0.007678945
0.007702461
0.007725385
0.007747954
0.007770678
0.007794611
0.007821919
0.007852851
0.009260239
0.006937102
0.006675501
0.006705891
0.00678929
0.006884253
0.006977208
0.007062689
0.007138836
0.0072055
0.007263346
0.007313427
0.007356958
0.007395182
0.007429309
0.007460455
0.007489548
0.007517265
0.00754404
0.007570115
0.007595607
0.007620565
0.00764501
0.007668984
0.007692618
0.007716242
0.007740552
0.007766886
0.007797711
0.007832587
0.009262755
0.006962206
0.006711146
0.006743979
0.006823037
0.00691001
0.006994017
0.007070994
0.007139564
0.007199644
0.007251808
0.007296998
0.007336341
0.007371036
0.007402259
0.007431091
0.007458431
0.007484934
0.007511015
0.007536889
0.00756262
0.00758819
0.007613544
0.007638663
0.007663647
0.007688831
0.007714956
0.007743413
0.007776626
0.007813342
0.00926478
0.006981995
0.006738048
0.006773684
0.006850955
0.006932834
0.007010131
0.007079942
0.007141506
0.007195014
0.007241152
0.007280905
0.007315431
0.007345965
0.007373724
0.007399811
0.007425103
0.007450312
0.007475864
0.007501926
0.007528467
0.007555333
0.007582325
0.007609279
0.007636195
0.007663349
0.007691436
0.007721772
0.00775662
0.007794131
0.009266658
0.006997221
0.006756835
0.006794576
0.00687123
0.006949934
0.007022338
0.007086312
0.007141632
0.007188832
0.007228824
0.007262761
0.007291941
0.007317696
0.00734135
0.007364171
0.007387255
0.007411286
0.00743664
0.007463389
0.007491354
0.00752019
0.007549502
0.007578964
0.007608426
0.007638014
0.007668295
0.007700449
0.007736557
0.007774361
0.009268486
0.007008951
0.006769091
0.006807895
0.006884206
0.006960713
0.007029366
0.007088463
0.007138167
0.007179321
0.007213101
0.00724089
0.00726413
0.007284519
0.0073037
0.0073231
0.007343891
0.007366865
0.007392389
0.00742041
0.007450528
0.007482133
0.007514553
0.007547207
0.007579736
0.00761213
0.007644808
0.007678795
0.007715989
0.007753821
0.009270254
0.007018096
0.006776468
0.006815295
0.006891074
0.00696574
0.007031223
0.007086009
0.007130488
0.00716574
0.007193177
0.007214376
0.007231313
0.007245913
0.007260121
0.007275686
0.007294006
0.007316028
0.007342122
0.007372073
0.007405178
0.007440448
0.007476847
0.007513475
0.007549727
0.007585402
0.007620771
0.007656719
0.007694991
0.007732791
0.009271927
0.007025309
0.00678036
0.006818332
0.006893222
0.006966073
0.007028622
0.007079376
0.007118828
0.007148193
0.007169093
0.007183519
0.00719366
0.007201883
0.007210535
0.007221774
0.007237355
0.007258484
0.007285555
0.00731816
0.007355192
0.007395136
0.007436459
0.007477867
0.007518479
0.007557904
0.007596277
0.007634365
0.007673797
0.0077116
0.009273469
0.007031024
0.006781857
0.006818335
0.00689199
0.006962934
0.007022627
0.007069496
0.007104046
0.007127565
0.007141886
0.007149226
0.007152138
0.007153383
0.00715583
0.007162278
0.007176451
0.007197945
0.00722623
0.007260788
0.007301375
0.00734686
0.007394079
0.007441071
0.007486628
0.007530204
0.007571842
0.00761223
0.00765292
0.007690806
0.00927484
0.007035511
0.006781799
0.006816408
0.006888586
0.006957557
0.007014468
0.007057609
0.007087414
0.00710528
0.007113089
0.007113272
0.007108661
0.007102501
0.007101
0.007106903
0.007119833
0.007140951
0.007170587
0.007208
0.00725152
0.007299061
0.007351247
0.00740434
0.007455272
0.00750325
0.007548284
0.007591047
0.007633059
0.007671114
0.009275999
0.00703892
0.006780826
0.006813453
0.006884072
0.006951113
0.00700542
0.007045119
0.007070608
0.007083196
0.007084864
0.007078152
0.007066153
0.007056097
0.007052269
0.007054559
0.00706519
0.007085829
0.007116886
0.00715739
0.007205228
0.007257645
0.007311992
0.007369667
0.007425932
0.007478284
0.007526641
0.007571711
0.007615026
0.007653315
0.009276907
0.007041328
0.006779413
0.006810186
0.006879335
0.006944638
0.00699668
0.007033456
0.00705524
0.007063315
0.007059654
0.00704685
0.007029272
0.007017503
0.00700952
0.007008271
0.007016786
0.007037013
0.007069385
0.007112724
0.007164524
0.007221535
0.00728044
0.00733959
0.007400443
0.007456737
0.00750806
0.007555177
0.007599665
0.007638216
0.009277531
0.007042757
0.006777897
0.006807142
0.006875063
0.006938972
0.006989265
0.007023817
0.00704282
0.007047505
0.007039819
0.007022408
0.00700319
0.006987884
0.006976416
0.006972434
0.006979326
0.006999237
0.00703263
0.007078168
0.00713303
0.007193586
0.007256133
0.007317626
0.007380797
0.007440074
0.007493688
0.007542382
0.007587785
0.007626564
0.009277841
0.007043222
0.006776491
0.006804669
0.006871718
0.00693469
0.006983876
0.007017081
0.007034453
0.007037188
0.007027212
0.007007202
0.006987113
0.006969722
0.006956272
0.006950749
0.006956724
0.006976456
0.007010428
0.007057217
0.007113821
0.007176391
0.007241009
0.007304327
0.007368372
0.007429326
0.007484263
0.007533878
0.007579835
0.007618838
0.009277827
0.007042706
0.006775279
0.006802918
0.006869505
0.006932054
0.006980843
0.007013674
0.007030695
0.007033105
0.007022833
0.00700256
0.00698226
0.006964685
0.006951096
0.006945483
0.006951419
0.006971163
0.007005196
0.00705209
0.00710884
0.007171586
0.0072364
0.007299921
0.007364143
0.007425282
0.007480383
0.007530132
0.007576189
0.007615256
0.009277488
0.007041194
0.006774226
0.006801842
0.006868362
0.00693099
0.006980081
0.007013501
0.007031443
0.007035147
0.007026572
0.007008379
0.006988538
0.006972697
0.006960831
0.006956601
0.006963397
0.006983365
0.00701696
0.007062833
0.007118144
0.007179235
0.007242373
0.00730447
0.007368185
0.007428015
0.007482113
0.007531203
0.007576902
0.007615905
0.009276836
0.007038666
0.006773181
0.006801195
0.006867965
0.006931086
0.006981082
0.007015926
0.007035901
0.007042306
0.007037141
0.007023021
0.007004403
0.006991766
0.006983153
0.006981535
0.006989945
0.007010327
0.007043098
0.007087056
0.007139655
0.0071976
0.007257523
0.007317645
0.007379531
0.007436765
0.007488898
0.007536671
0.007581639
0.0076205
0.009275894
0.007035095
0.006771876
0.006800546
0.006867743
0.006931632
0.006982973
0.007019879
0.007042747
0.007052932
0.00705245
0.007043877
0.007030347
0.007019191
0.007014552
0.007016413
0.007027004
0.007047978
0.007079715
0.0071212
0.007170259
0.007224064
0.00727988
0.007338966
0.007396695
0.007450376
0.007499875
0.007545865
0.007589842
0.007628524
0.009274702
0.007030426
0.006769925
0.006799294
0.006866915
0.006931666
0.006984591
0.007023969
0.007050286
0.007064949
0.007069934
0.007067717
0.007061171
0.00705358
0.007051241
0.007056749
0.007069809
0.007091544
0.007122241
0.00716109
0.007206332
0.007255772
0.007309797
0.007364887
0.007417731
0.007467438
0.007513957
0.00755791
0.00760076
0.007639259
0.009273299
0.007024585
0.006766834
0.006796683
0.006864528
0.006930051
0.006984604
0.007026625
0.007056684
0.007076176
0.007086991
0.007091416
0.007092055
0.007091699
0.007093232
0.007099444
0.007114105
0.007136615
0.007166451
0.007202986
0.007245733
0.007293694
0.007343495
0.007393034
0.007440987
0.007486723
0.007530207
0.007572065
0.00761378
0.00765219
0.00927173
0.007017442
0.00676199
0.006791827
0.006859503
0.006925551
0.006981623
0.007026292
0.007060176
0.007084623
0.007101353
0.007112398
0.007120026
0.007126611
0.00713449
0.007145786
0.0071622
0.007184855
0.007214052
0.007249265
0.007289254
0.007332357
0.007376892
0.007421428
0.007464963
0.007507006
0.007547608
0.007587461
0.007628112
0.00766653
0.00927004
0.007008803
0.006754661
0.006783726
0.006850687
0.006916917
0.006974337
0.007021604
0.007059316
0.007088721
0.00711134
0.007128869
0.007143202
0.007156302
0.007170055
0.007186138
0.007205862
0.007230067
0.007258998
0.007292295
0.007329096
0.007368242
0.007408531
0.007448911
0.007488645
0.00752742
0.007565417
0.007603434
0.007643107
0.007681627
0.009268277
0.006998387
0.006744004
0.006771308
0.006836929
0.006903004
0.006961655
0.007011552
0.007053183
0.007087596
0.00711606
0.007139962
0.007160754
0.007180024
0.007199271
0.007219832
0.007242745
0.007268672
0.00729783
0.007330002
0.007364607
0.007400848
0.007437869
0.007474925
0.007511512
0.007547501
0.007583213
0.007619585
0.007658416
0.007697074
0.009266493
0.006985825
0.006729101
0.006753525
0.006817233
0.006882963
0.006942935
0.006995725
0.007041591
0.007081266
0.007115668
0.007145849
0.007172957
0.007198149
0.007222601
0.00724743
0.007273487
0.00730132
0.007331156
0.007362892
0.007396154
0.007430396
0.007465026
0.007499532
0.007533623
0.007567295
0.007601012
0.007635861
0.007673821
0.007712552
0.00926474
0.006970702
0.006709114
0.006729605
0.006791093
0.006856641
0.00691839
0.006974694
0.00702543
0.007070866
0.007111486
0.007147971
0.007181171
0.007212032
0.007241513
0.007270467
0.007299629
0.007329522
0.007360399
0.007392254
0.007424862
0.007457861
0.007490844
0.007523464
0.007555549
0.007587249
0.007619152
0.007652477
0.00768938
0.007727927
0.009262996
0.006952612
0.006683684
0.00669963
0.006759186
0.006825295
0.006889765
0.006950601
0.007007123
0.007058978
0.007106151
0.007148973
0.007188059
0.0072242
0.007258242
0.007290991
0.00732312
0.007355117
0.007387254
0.007419594
0.007452029
0.007484333
0.007516241
0.007547534
0.007578142
0.007608263
0.007638526
0.007670222
0.007705665
0.007743509
0.009260983
0.006931153
0.006653437
0.006665421
0.006724367
0.006792513
0.006861102
0.006927713
0.006990949
0.007049738
0.007103573
0.007152525
0.007197083
0.007237983
0.007276057
0.00731211
0.007346828
0.007380728
0.00741413
0.007447164
0.007479804
0.00751191
0.007543299
0.007573809
0.007603396
0.007632245
0.007660935
0.007690702
0.007723898
0.007759979
0.0092577
0.006909818
0.006621901
0.006631668
0.006692674
0.006764983
0.006839209
0.006912547
0.006982875
0.00704846
0.007108459
0.007162827
0.007212049
0.007256903
0.007298273
0.007337015
0.007373868
0.007409397
0.007443978
0.007477798
0.007510889
0.007543166
0.007574486
0.007604703
0.007633739
0.007661681
0.007688921
0.007716407
0.007746186
0.007778395
0.00924861
0.006915491
0.006606064
0.006611624
0.006676319
0.006754074
0.006834149
0.0069135
0.006989515
0.007060154
0.007124467
0.007182433
0.007234611
0.007281862
0.007325153
0.007365414
0.007403451
0.00743989
0.007475157
0.007509487
0.007542951
0.007575494
0.007606987
0.00763727
0.007666207
0.007693745
0.007719996
0.007745407
0.007771016
0.007795735
0.05538444
0.05312089
0.0554716
0.05806239
0.06048946
0.06265575
0.06453125
0.06612856
0.06747701
0.06861002
0.0695609
0.0703615
0.07104116
0.07162595
0.07213805
0.07259539
0.07301186
0.07339761
0.07375965
0.0741023
0.07442762
0.07473581
0.0750255
0.07529403
0.0755376
0.07575098
0.07592664
0.07605256
0.07610849
0.0760775
0.05640726
0.05374183
0.05606172
0.05858131
0.06089472
0.06295488
0.06474783
0.06628397
0.06758694
0.06868548
0.06960974
0.07038948
0.07105294
0.07162558
0.07212928
0.07258182
0.07299685
0.07338423
0.07375054
0.07409962
0.07443297
0.07475019
0.07504935
0.07532723
0.07557945
0.07580007
0.07598042
0.07610654
0.07615456
0.076104
0.05676637
0.05425551
0.05671629
0.05923817
0.06145159
0.06338276
0.06505508
0.06648938
0.06770915
0.06874028
0.06960992
0.0703455
0.07097357
0.07151864
0.07200201
0.07244114
0.07284936
0.07323608
0.0736072
0.0739656
0.07431167
0.07464381
0.07495889
0.07525262
0.07551963
0.07575305
0.07594315
0.07607454
0.07612154
0.07606415
0.05692546
0.05460833
0.05723675
0.05981147
0.06197531
0.06380606
0.06536428
0.06668881
0.06780993
0.06875513
0.0695512
0.07022471
0.07080144
0.07130542
0.07175777
0.07217584
0.07257277
0.07295746
0.07333483
0.07370639
0.07407082
0.07442464
0.07476292
0.07507976
0.07536844
0.075621
0.07582676
0.07596951
0.07602277
0.07596709
0.05702211
0.05483495
0.05759574
0.06023415
0.06238327
0.06414729
0.06561315
0.06683704
0.06785888
0.06871109
0.0694229
0.07002216
0.07053552
0.07098775
0.07140068
0.07179212
0.07217544
0.07255894
0.07294624
0.07333693
0.07372729
0.07411129
0.07448151
0.07482991
0.07514809
0.07542672
0.07565424
0.07581385
0.07587872
0.07582958
0.05708732
0.05496789
0.05781831
0.06051076
0.06265955
0.06437916
0.06577221
0.06690787
0.06783527
0.06859301
0.06921461
0.06973109
0.07017178
0.07056374
0.07093079
0.07129173
0.07166006
0.07204407
0.07244626
0.07286385
0.07328992
0.07371484
0.0741278
0.07451781
0.07487415
0.0751861
0.07544128
0.07562251
0.07570285
0.07566311
0.05713153
0.05503258
0.05793692
0.06066743
0.06281734
0.06450318
0.06583571
0.06689264
0.06773039
0.06839361
0.06892088
0.06934786
0.06970815
0.07003217
0.07034612
0.07067185
0.07102452
0.07141234
0.07183624
0.07229034
0.07276345
0.07324125
0.07370859
0.07415092
0.07455497
0.07490825
0.07519742
0.07540498
0.07550415
0.07547597
0.05716075
0.05504911
0.05798029
0.06073287
0.06287925
0.06453422
0.06581218
0.06679581
0.06754679
0.06811497
0.06854427
0.06887577
0.06914752
0.06939516
0.06964991
0.06993674
0.07027261
0.07066726
0.07112052
0.07162268
0.07215649
0.07270081
0.07323512
0.07374066
0.07420132
0.07460298
0.07493147
0.07516921
0.07528973
0.07527446
0.05717926
0.05503337
0.05797182
0.06073289
0.06286932
0.06449254
0.06571799
0.06663094
0.06729651
0.06776884
0.06809692
0.0683266
0.06850266
0.06866636
0.0688534
0.06909307
0.06940215
0.06980127
0.07029159
0.07085889
0.07147473
0.07210343
0.07271942
0.07329948
0.07382518
0.07428131
0.07465343
0.0749242
0.07506779
0.07506617
0.05719019
0.05499789
0.05793033
0.06068951
0.06281019
0.06439989
0.06557365
0.06641771
0.06699936
0.06737598
0.06760041
0.06772466
0.06779878
0.06786729
0.06796503
0.06812988
0.06834654
0.06872024
0.06925612
0.06993697
0.07070175
0.07145071
0.07217339
0.0728419
0.07344045
0.07395564
0.07437412
0.07467949
0.07484686
0.07485904
0.05719592
0.05495265
0.05787099
0.0606213
0.06272233
0.06427775
0.06540147
0.06617973
0.06668089
0.0669644
0.06708714
0.06710526
0.06707032
0.06701526
0.06692812
0.06692579
0.06709103
0.06746678
0.06805466
0.06882533
0.06972468
0.07068725
0.07159776
0.0723828
0.07306316
0.07364014
0.07410557
0.07444533
0.07463605
0.07466151
0.05719823
0.05490557
0.05780607
0.06054371
0.06262373
0.06414628
0.06522387
0.0659422
0.06636992
0.06656813
0.06659626
0.06651157
0.06635458
0.06608908
0.06583395
0.06572925
0.06585244
0.06623742
0.06687995
0.06774232
0.0687622
0.06986531
0.07096963
0.07193585
0.07271087
0.07335025
0.07386056
0.07423243
0.07444461
0.0744821
0.05719843
0.05486287
0.05774528
0.0604693
0.06252953
0.06402321
0.06506154
0.06572944
0.06609558
0.06622202
0.06616903
0.06598987
0.06568874
0.06523309
0.06485539
0.06467566
0.0647674
0.06516316
0.06585533
0.06679905
0.06792231
0.06914115
0.07037154
0.07152957
0.07240367
0.07310181
0.07365171
0.07405107
0.07428134
0.07432881
0.05719744
0.0548291
0.05769586
0.06040759
0.06245152
0.06392279
0.06493159
0.0655622
0.06588319
0.0659569
0.06584316
0.06558626
0.06512762
0.06456885
0.06411198
0.06388058
0.06395038
0.06435492
0.06508468
0.06608956
0.06728983
0.06859365
0.06991192
0.0711595
0.07215716
0.07290887
0.07349002
0.07391003
0.07415364
0.07420838
0.05719589
0.05480722
0.05766253
0.06036486
0.0623976
0.06385476
0.06484595
0.06545514
0.06575077
0.06579528
0.06564802
0.06534793
0.06480337
0.06418772
0.06368919
0.06343041
0.0634885
0.0638978
0.06464791
0.06568592
0.06692788
0.0682775
0.06964206
0.070933
0.07200249
0.07278579
0.07338485
0.07381648
0.07406754
0.07412613
0.057194
0.05479855
0.05764739
0.06034394
0.06237138
0.06382361
0.06481019
0.06541511
0.06570685
0.06574789
0.06559762
0.06529499
0.06474833
0.06413123
0.06363171
0.06337234
0.06343019
0.06383958
0.06459013
0.06562894
0.06687206
0.06822317
0.06958952
0.07088248
0.07195439
0.07273976
0.07334059
0.07377368
0.07402579
0.07408497
0.0571917
0.05480276
0.05764993
0.06034413
0.06237196
0.06382821
0.06482295
0.06544053
0.06574962
0.06581271
0.06568974
0.06542506
0.06495997
0.06439679
0.06393703
0.06370397
0.06377323
0.06417831
0.06490969
0.06591728
0.06712134
0.06842994
0.06975384
0.07100763
0.07201274
0.07277072
0.07335723
0.0737816
0.0740284
0.0740848
0.05718862
0.05481788
0.05766696
0.06036117
0.06239393
0.06386186
0.06487603
0.06552143
0.065867
0.06597506
0.06590613
0.06571359
0.06540164
0.06493846
0.06455611
0.06437405
0.06446554
0.06486302
0.06555881
0.06650803
0.06763854
0.06886621
0.07010688
0.07127709
0.07216271
0.07287127
0.07343025
0.07383704
0.07407277
0.07412325
0.05718404
0.05484035
0.05769281
0.06038747
0.06242769
0.06391273
0.06495495
0.06564024
0.06603765
0.06620885
0.06621364
0.06610956
0.06593734
0.06566127
0.06540019
0.06529316
0.06541737
0.06580639
0.06645581
0.06732773
0.06835956
0.06947659
0.07059639
0.07158134
0.07237312
0.0730276
0.07355103
0.07393363
0.07415372
0.0741957
0.0571769
0.05486508
0.05771943
0.06041239
0.06245995
0.06396463
0.06504022
0.06577343
0.0662333
0.06648008
0.06657139
0.06656379
0.0665091
0.06644055
0.06634726
0.0663436
0.0665128
0.06689643
0.06749601
0.06828185
0.06919934
0.07018224
0.07111713
0.07192597
0.07262868
0.07322591
0.0737089
0.07406297
0.07426427
0.07429594
0.0571658
0.0548855
0.05773651
0.06042251
0.0624743
0.06399805
0.06510895
0.06589413
0.06642205
0.06675125
0.06693563
0.06702785
0.0670782
0.06713123
0.06722175
0.06738738
0.06761526
0.06800187
0.06855607
0.06925982
0.07005079
0.07082934
0.07158304
0.07228205
0.07290932
0.07345047
0.07389135
0.0742149
0.0743957
0.07441579
0.05714895
0.05489355
0.05773164
0.06040195
0.06245184
0.06399134
0.06513661
0.06597463
0.0665725
0.06698607
0.06726543
0.06745732
0.06760671
0.06775465
0.06793637
0.06818061
0.06850355
0.06892398
0.06944215
0.07004253
0.07069525
0.07136304
0.0720186
0.07263705
0.07319862
0.07368695
0.07408668
0.07437977
0.07453979
0.07454782
0.0571241
0.05487963
0.05769019
0.06033248
0.06237177
0.06392177
0.0650989
0.06598896
0.0666567
0.06715431
0.0675271
0.06781657
0.06806061
0.06829445
0.0685483
0.06884607
0.0692035
0.06962888
0.07012037
0.07066645
0.0712479
0.07184158
0.072425
0.07297765
0.07348192
0.07392243
0.07428406
0.07454845
0.07468858
0.07468474
0.0570884
0.05483236
0.05759516
0.06019373
0.0622121
0.06376698
0.06497367
0.06591537
0.06665304
0.06723421
0.0676987
0.06808205
0.06841683
0.06873177
0.06905204
0.06939764
0.06978204
0.07021172
0.07068555
0.07119542
0.07172778
0.07226597
0.07279263
0.07329129
0.07374704
0.07414609
0.07447407
0.0747127
0.07483454
0.07481955
0.05703821
0.05473836
0.05742711
0.05996377
0.06195119
0.06350722
0.06474372
0.06573916
0.06654903
0.06721483
0.06777037
0.0682452
0.06866628
0.06905813
0.06944179
0.06983381
0.07024598
0.07068441
0.07114926
0.07163522
0.07213271
0.07262947
0.07311223
0.07356794
0.07398415
0.07434878
0.07464842
0.07486507
0.07497113
0.07494632
0.05696857
0.05458203
0.05716487
0.0596215
0.06157171
0.06313018
0.06440164
0.06545722
0.06634474
0.06709839
0.06774544
0.06830991
0.06881401
0.06927833
0.06972115
0.07015758
0.07059848
0.07104985
0.07151297
0.07198476
0.07245863
0.07292571
0.07337597
0.07379914
0.074185
0.07452287
0.07480013
0.07499921
0.07509262
0.07505995
0.0568703
0.05434485
0.05678852
0.05915347
0.06106985
0.06264074
0.0639586
0.06508473
0.06605745
0.06690257
0.06764091
0.06829174
0.06887384
0.06940532
0.0699028
0.07038045
0.07084896
0.07131498
0.07178104
0.07224589
0.07270522
0.07315257
0.07358027
0.07398011
0.07434353
0.07466117
0.07492137
0.07510714
0.0751914
0.0751535
0.05671311
0.0540024
0.05628981
0.05857154
0.06047469
0.06207806
0.06345748
0.0646641
0.06572633
0.06666179
0.06748591
0.06821476
0.06886522
0.06945438
0.06999839
0.07051134
0.07100425
0.07148448
0.07195566
0.07241795
0.07286868
0.0733032
0.07371557
0.07409914
0.0744467
0.07475
0.07499832
0.07517555
0.07525542
0.07521678
0.05635534
0.05352023
0.05570648
0.05795236
0.0598802
0.06153781
0.0629861
0.06427081
0.06541286
0.06642396
0.06731645
0.06810511
0.06880645
0.0694376
0.07001498
0.07055308
0.07106344
0.07155407
0.0720294
0.07249057
0.07293604
0.07336232
0.07376461
0.07413736
0.07447434
0.07476826
0.0750095
0.07518338
0.07526544
0.07523411
0.05532044
0.05291698
0.05520481
0.05749184
0.05946846
0.06117547
0.06267123
0.06400353
0.06519085
0.06624263
0.06717052
0.06798933
0.06871581
0.06936739
0.06996079
0.07051076
0.07102912
0.07152423
0.0720009
0.07246072
0.0729027
0.07332389
0.07372012
0.07408639
0.07441709
0.07470566
0.07494364
0.07511828
0.07520871
0.07519688
0.0868579
0.09138085
0.09968945
0.1085169
0.116697
0.123809
0.1298423
0.1349103
0.1391398
0.1426515
0.1455598
0.1479727
0.1499899
0.1516997
0.153177
0.1544819
0.15566
0.1567446
0.1577581
0.1587143
0.1596201
0.1604764
0.1612794
0.1620215
0.162692
0.1632773
0.1637603
0.1641202
0.1643348
0.1644017
0.08787267
0.09311097
0.1016487
0.1102502
0.1180284
0.1247714
0.1305143
0.1353608
0.1394216
0.1428041
0.1456128
0.1479486
0.1499062
0.1515708
0.1530153
0.1542987
0.1554658
0.1565489
0.1575693
0.1585395
0.1594647
0.160344
0.161172
0.1619394
0.1626338
0.1632401
0.1637394
0.164108
0.1643208
0.164376
0.08853895
0.09471066
0.1037775
0.1123904
0.1198497
0.1261834
0.1315375
0.1360488
0.1398317
0.1429876
0.1456133
0.1478022
0.149643
0.1512169
0.1525942
0.1538322
0.1549744
0.1560517
0.1570833
0.1580791
0.1590408
0.1599639
0.1608394
0.1616546
0.1623943
0.1630406
0.163572
0.1639623
0.1641839
0.1642373
0.08894114
0.09582626
0.1054241
0.1142117
0.121536
0.1275736
0.132579
0.1367455
0.1402129
0.1430921
0.1454808
0.1474708
0.1491483
0.1505924
0.1518721
0.1530437
0.15415
0.1552199
0.1562699
0.1573055
0.1583234
0.1593133
0.1602606
0.1611476
0.1619549
0.1626612
0.1632422
0.1636692
0.1639134
0.1639761
0.08918334
0.09652716
0.1065308
0.1155255
0.1228307
0.128687
0.1334217
0.1372816
0.1404399
0.1430265
0.1451495
0.1469058
0.1483848
0.1496677
0.1508252
0.1519146
0.1529784
0.154044
0.1551242
0.1562187
0.1573169
0.1584008
0.1594478
0.1604334
0.1613328
0.1621205
0.1627691
0.1632481
0.1635276
0.1636084
0.08932346
0.09693068
0.1072029
0.1163689
0.1236965
0.1294411
0.1339692
0.1375661
0.1404356
0.1427296
0.1445718
0.1460706
0.1473241
0.1484206
0.1494359
0.1504309
0.1514494
0.1525176
0.153644
0.1548214
0.1560295
0.1572393
0.1584181
0.1595325
0.1605506
0.1614423
0.1621771
0.1627228
0.1630485
0.1631543
0.08939603
0.09713026
0.1075581
0.1168388
0.1241867
0.1298485
0.1342072
0.137572
0.14017
0.142174
0.1437253
0.1449476
0.1459529
0.1468406
0.1476956
0.1485849
0.1495563
0.1506361
0.1518288
0.1531177
0.15447
0.1558425
0.157189
0.158465
0.1596305
0.1606496
0.1614891
0.1621155
0.1624972
0.1626333
0.08942374
0.09719319
0.1076926
0.1170329
0.1243801
0.129963
0.1341678
0.1373164
0.1396525
0.1413662
0.1426166
0.1435454
0.1442812
0.1449384
0.1456143
0.1463869
0.1473097
0.1484111
0.1496922
0.1511253
0.1526604
0.1542356
0.1557877
0.1572585
0.158599
0.159768
0.1607293
0.1614487
0.1618946
0.1620652
0.0894224
0.09716767
0.1076794
0.1170342
0.1243557
0.1298523
0.1339062
0.136845
0.138923
0.1403442
0.1412849
0.1419049
0.1423516
0.1427569
0.1432338
0.1438725
0.1447357
0.1458608
0.1472516
0.1488667
0.1506304
0.1524539
0.1542519
0.1559505
0.1574916
0.1588293
0.159926
0.1607477
0.1612637
0.1614717
0.08940343
0.09708907
0.1075743
0.1169105
0.124185
0.129586
0.1334887
0.1362215
0.1380451
0.1391748
0.1398016
0.1401034
0.140246
0.140377
0.1406208
0.1410881
0.1418566
0.1429826
0.1445032
0.1463536
0.1484066
0.150538
0.1526292
0.1545886
0.1563516
0.1578717
0.1591125
0.1600416
0.1606304
0.1608769
0.08937532
0.096984
0.1074204
0.1167169
0.1239306
0.129231
0.1329854
0.1355203
0.1371001
0.1379482
0.1382685
0.138254
0.1380836
0.1379064
0.1378444
0.1380596
0.1387118
0.1398658
0.1415215
0.143606
0.1459908
0.1485244
0.1509739
0.1532297
0.1552309
0.1569396
0.1583258
0.159362
0.1600226
0.1603066
0.08934448
0.09687282
0.1072511
0.1164981
0.123646
0.1288487
0.1324654
0.1348199
0.1361782
0.1367696
0.1368075
0.1364952
0.13601
0.1354722
0.1351002
0.1351222
0.1356909
0.136876
0.1386665
0.1409737
0.1436479
0.1465066
0.1493568
0.1519419
0.1541885
0.1560815
0.1576059
0.1587419
0.1594685
0.159787
0.08931569
0.09677096
0.1070926
0.1162897
0.1233757
0.1284921
0.1319914
0.1341946
0.1353681
0.1357451
0.1355451
0.1349732
0.134194
0.1333256
0.1327096
0.1325767
0.133082
0.1342971
0.1362052
0.1387032
0.1416208
0.1447528
0.147888
0.1508099
0.1532888
0.1553474
0.1569917
0.1582129
0.1589954
0.1593426
0.08929236
0.09668957
0.1069638
0.1161181
0.1231537
0.1282033
0.1316145
0.1337063
0.1347451
0.1349664
0.1345916
0.1338195
0.1327779
0.1317006
0.1309184
0.1306768
0.1311377
0.1323755
0.1343698
0.1370075
0.1401026
0.143433
0.1467763
0.1499275
0.1525946
0.1547832
0.1565183
0.1578027
0.1586262
0.1589944
0.08927664
0.09663574
0.1068768
0.1160009
0.1230026
0.1280105
0.1313697
0.133398
0.134362
0.134498
0.134028
0.1331466
0.1319635
0.1307727
0.129903
0.1296042
0.1300415
0.131291
0.133331
0.1360428
0.1392322
0.1426682
0.1461207
0.1493811
0.1521633
0.1544266
0.1562126
0.157532
0.1583783
0.1587581
0.08926945
0.09661255
0.1068371
0.1159455
0.1229326
0.1279267
0.131273
0.1332895
0.1342429
0.1343698
0.1338922
0.1330048
0.1318171
0.130623
0.1297512
0.1294511
0.1298878
0.1311373
0.1331779
0.1358912
0.1390828
0.1425218
0.1459782
0.149243
0.1520304
0.1542984
0.1560887
0.1574118
0.1582606
0.1586419
0.08927049
0.0966191
0.1068432
0.11595
0.1229409
0.1279484
0.1313202
0.1333758
0.1343821
0.1345751
0.1341768
0.1333859
0.13233
0.1312428
0.1304542
0.1302091
0.1306688
0.1319074
0.1339046
0.1365475
0.1396502
0.1429909
0.1463466
0.1495124
0.152195
0.1543982
0.1561465
0.1574417
0.1582731
0.1586457
0.08927827
0.09665053
0.1068868
0.1160026
0.123012
0.1280559
0.1314869
0.133627
0.1347436
0.1350711
0.1348296
0.1342245
0.1334202
0.1325349
0.1319085
0.1317708
0.1322759
0.1334949
0.1354108
0.1379207
0.1408543
0.1440063
0.1471652
0.1501139
0.1526198
0.154704
0.156371
0.1576109
0.1584071
0.1587618
0.08929011
0.09669811
0.106953
0.1160821
0.1231183
0.1282145
0.1317302
0.1339908
0.135264
0.1357811
0.1357567
0.1353947
0.1348725
0.1343102
0.1339248
0.1339425
0.1345148
0.1357105
0.1375179
0.139848
0.1425509
0.1454436
0.1483324
0.1509592
0.1532467
0.1551779
0.1567358
0.1578994
0.1586462
0.1589757
0.08930213
0.09674923
0.1070203
0.1161586
0.1232209
0.1283759
0.1319913
0.1343963
0.135858
0.1366029
0.1368369
0.1367545
0.1365343
0.1363251
0.1362493
0.1364627
0.1371264
0.1383026
0.1399895
0.1421132
0.1445449
0.1471315
0.1496392
0.1519543
0.1540127
0.1557742
0.1572066
0.1582804
0.1589682
0.1592673
0.08930919
0.09678741
0.107061
0.1161935
0.1232714
0.1284812
0.1322001
0.1347604
0.1364275
0.1374211
0.1379353
0.1381497
0.1382304
0.1383239
0.1385531
0.1390262
0.1398201
0.1409869
0.1425588
0.14447
0.1465941
0.1488031
0.1509753
0.1530151
0.1548546
0.1564444
0.1577455
0.1587234
0.1593474
0.1596133
0.08930475
0.09679186
0.1070405
0.1161405
0.1232125
0.1284638
0.1322803
0.1349962
0.1368733
0.1381221
0.1389227
0.1394371
0.1398123
0.140179
0.1406472
0.1413041
0.1422096
0.1433969
0.1448661
0.1465725
0.1484371
0.1503671
0.1522728
0.1540766
0.1557161
0.1571425
0.1583153
0.159198
0.1597579
0.15999
0.08928058
0.09673664
0.1069167
0.1159438
0.1229792
0.1282515
0.1321542
0.1350206
0.1371057
0.1386081
0.1396922
0.1405009
0.1411615
0.1417852
0.1424657
0.1432762
0.1442659
0.1454586
0.1468503
0.1484087
0.1500784
0.1517926
0.1534828
0.1550862
0.1565495
0.1578278
0.1588823
0.1596759
0.1601749
0.1603746
0.08922617
0.096589
0.1066371
0.1155382
0.1224993
0.1277703
0.1317485
0.1347615
0.1370532
0.1388073
0.1401702
0.1412653
0.1422006
0.1430697
0.1439512
0.1449061
0.1459765
0.1471829
0.1485236
0.1499758
0.1515001
0.1530471
0.1545647
0.1560028
0.1573168
0.1584673
0.1594177
0.160132
0.1605764
0.1607465
0.08912763
0.09630643
0.1061365
0.1148473
0.1216964
0.12695
0.1310019
0.1341672
0.1366723
0.138682
0.1403227
0.1416985
0.1428994
0.1440037
0.145078
0.146175
0.1473313
0.1485665
0.1498822
0.1512639
0.1526838
0.1541055
0.1554895
0.1567965
0.1579896
0.1590347
0.1598984
0.1605458
0.1609435
0.1610883
0.08896554
0.0958321
0.1053346
0.1137879
0.1204997
0.1257386
0.1298815
0.1332212
0.1359593
0.1382371
0.1401599
0.1418133
0.1432717
0.1446014
0.1458601
0.1470952
0.1483411
0.1496178
0.1509307
0.1522717
0.1536218
0.1549549
0.1562408
0.1574488
0.1585488
0.1595113
0.1603059
0.1608996
0.16126
0.1613846
0.08870887
0.09508802
0.1041399
0.1122888
0.1188739
0.1241352
0.1284132
0.1319676
0.134969
0.1375319
0.1397408
0.1416658
0.1433694
0.14491
0.1463403
0.1477055
0.1490399
0.1503652
0.1516905
0.1530131
0.1543208
0.1555948
0.1568123
0.1579491
0.1589804
0.1598809
0.1606232
0.1611765
0.1615095
0.1616199
0.08829583
0.09397149
0.1024844
0.1103511
0.1168883
0.1222532
0.1267316
0.1305473
0.1338371
0.1366903
0.1391753
0.1413514
0.1432744
0.1449994
0.1465783
0.1480564
0.1494697
0.1508425
0.1521871
0.1535052
0.1547895
0.1560264
0.1571986
0.1582865
0.1592697
0.1601263
0.1608317
0.1613576
0.1616743
0.1617786
0.08758013
0.09240244
0.1004578
0.1081998
0.1148434
0.1204116
0.1251394
0.1292295
0.1327928
0.1359022
0.1386177
0.1409946
0.1430874
0.1449518
0.1466411
0.1482029
0.1496754
0.1510851
0.1524473
0.1537664
0.1550385
0.1562536
0.1573977
0.1584545
0.1594066