/*--------------------------------*- C++ -*----------------------------------*\
| =========                 |                                                 |
| \\      /  F ield         | OpenFOAM: The Open Source CFD Toolbox           |
|  \\    /   O peration     | Version:  2506                                  |
|   \\  /    A nd           | Website:  www.openfoam.com                      |
|    \\/     M anipulation  |                                                 |
\*---------------------------------------------------------------------------*/
FoamFile
{
    version     2.0;
    format      ascii;
    arch        "LSB;label=32;scalar=64";
    class       volScalarField;
    location    "500/air";
    object      qr;
}
// * * * * * * * * * * * * * * * * * * * * * * * * * * * * * * * * * * * * * //

dimensions      [1 0 -3 0 0 0 0];

internalField   uniform 0;

boundaryField
{
    maxY
    {
        type            calculated;
        value           uniform 0;
    }
    minX
    {
        type            calculated;
        value           uniform 0;
    }
    maxX
    {
        type            calculated;
        value           uniform 0;
    }
    minY
    {
        type            calculated;
        value           uniform 0;
    }
    maxZ
    {
        type            calculated;
        value           uniform 0;
    }
    air_to_solid
    {
        type            greyDiffusiveRadiationViewFactor;
        value           nonuniform List<scalar> 
1536
(
-19.78893
-20.62069
-20.73753
-20.78783
-20.8418
-20.77857
-20.43879
-21.60651
-21.72759
-21.78613
-21.85218
-21.80346
-20.50505
-21.67281
-21.79643
-21.858
-21.9273
-21.88315
-20.50746
-21.67647
-21.80149
-21.86471
-21.9359
-21.89424
-20.50585
-21.6772
-21.80235
-21.86592
-21.93791
-21.89699
-20.37484
-21.54737
-21.67146
-21.73367
-21.80434
-21.76133
-21.73973
-19.48317
-132.6206
-23.77058
-133.8769
-23.83813
-133.9708
-23.84046
-133.9746
-23.84567
-133.9568
-23.73348
-133.7966
-25.4082
-20.86114
-133.1167
-134.8772
-134.9724
-134.979
-134.9663
-134.8125
-27.6245
-20.90659
-133.2026
-134.9597
-135.0565
-135.0641
-135.0519
-134.8992
-27.76405
-20.9008
-133.209
-134.9653
-135.0624
-135.0703
-135.0581
-134.9057
-27.81425
-20.90316
-133.1954
-134.9529
-135.0494
-135.0569
-135.0446
-134.8918
-27.83264
-20.78926
-133.0371
-134.7961
-134.8907
-134.8968
-134.8836
-134.7292
-27.69022
-22.43999
-24.46515
-24.53252
-24.53463
-24.53958
-24.42698
-20.90827
-22.66818
-22.74484
-22.81222
-22.81552
-22.81835
-22.81938
-22.82344
-22.8228
-22.77179
-22.70708
-22.38273
-19.02147
-19.77895
-20.53123
-20.36778
-21.44161
-20.72307
-21.53369
-21.63846
-20.77485
-21.65404
-21.69643
-20.82941
-21.71152
-21.76073
-20.83006
-21.77619
-21.77488
-20.33522
-21.72573
-21.05744
-23.90433
-25.28786
-19.84499
-19.89641
-21.51415
-20.50186
-21.57697
-21.71179
-21.66962
-21.77636
-21.77075
-21.79272
-21.83768
-21.83634
-21.85368
-21.90583
-21.85216
-21.92235
-21.92484
-21.13804
-21.87731
-21.22203
-25.37952
-25.4937
-19.89711
-19.89435
-21.58012
-20.50702
-21.58276
-21.77992
-21.67562
-21.78358
-21.84185
-21.80041
-21.84683
-21.91061
-21.86333
-21.91706
-21.93038
-21.93414
-21.93863
-21.23048
-21.89202
-21.24445
-25.51131
-25.54737
-19.89411
-19.89548
-21.58356
-20.50818
-21.5857
-21.7846
-21.67874
-21.78702
-21.84813
-21.80396
-21.85086
-21.91871
-21.86757
-21.92207
-21.94072
-21.93947
-21.94491
-21.2476
-21.89855
-21.25237
-25.556
-25.57118
-19.8943
-19.8414
-21.5841
-20.44521
-21.5257
-21.78543
-21.6188
-21.72651
-21.84921
-21.74321
-21.78945
-21.92048
-21.80598
-21.86009
-21.94341
-21.87739
-21.88225
-21.25
-21.83533
-21.18333
-25.57024
-25.5038
-19.77474
-19.22719
-21.45447
-19.80546
-20.55868
-21.59667
-23.21861
-21.65487
-20.64962
-20.75681
-23.29508
-23.36171
-21.71729
-20.77305
-20.81634
-23.36473
-23.36665
-21.78724
-20.83153
-20.8805
-23.36735
-23.37032
-21.80848
-20.89562
-20.89294
-23.36928
-23.31692
-21.10805
-20.84475
-20.40975
-25.42704
-23.25169
-24.19461
-22.58949
-23.69425
-133.7896
-20.79715
-133.038
-134.7074
-23.83557
-133.964
-134.7969
-134.8843
-23.83949
-133.9756
-134.8915
-134.8978
-23.84564
-133.9649
-134.8975
-134.8912
-23.79731
-133.875
-134.8843
-134.8081
-23.02256
-133.7137
-134.7299
-27.53002
-134.7355
-134.7873
-20.90724
-133.1957
-134.8632
-134.9651
-134.9531
-135.042
-134.9791
-135.0496
-135.057
-134.973
-135.057
-135.0514
-134.8905
-135.0448
-134.9696
-134.8187
-134.892
-27.7447
-134.9036
-134.8697
-20.90125
-133.209
-134.8752
-135.0488
-134.9653
-135.0547
-135.064
-135.0624
-135.0702
-135.0585
-135.0703
-135.0648
-134.9767
-135.0581
-134.9831
-134.9116
-134.9057
-27.80434
-134.9194
-134.8752
-20.9034
-133.2023
-134.8695
-135.0547
-134.9595
-135.0486
-135.0701
-135.0563
-135.0638
-135.0648
-135.0639
-135.0584
-134.9831
-135.0517
-134.9766
-134.9194
-134.899
-27.83281
-134.9113
-134.8629
-20.85427
-133.116
-134.7868
-135.0418
-134.8766
-134.9646
-135.0568
-134.9719
-134.9786
-135.0512
-134.9785
-134.9726
-134.9694
-134.9658
-134.89
-134.9031
-134.812
-27.76748
-134.8178
-134.7066
-19.61077
-132.7458
-24.38883
-133.9862
-134.8836
-134.0735
-24.53002
-134.1607
-134.897
-134.1675
-24.53372
-134.1723
-134.8905
-134.1713
-24.53963
-134.1617
-134.8073
-134.1536
-24.49095
-134.0719
-134.7343
-133.9934
-25.75373
-23.48599
-133.8391
-20.63023
-20.14772
-20.05313
-20.79518
-18.70814
-21.10999
-19.07223
-21.20388
-20.67281
-21.15139
-21.52374
-21.56728
-21.28321
-20.75011
-21.26984
-21.60537
-21.60876
-21.33886
-20.80147
-21.32399
-21.61755
-21.62105
-21.39382
-20.8502
-21.38363
-21.62926
-21.62642
-21.22583
-20.67896
-21.32759
-21.51939
-21.41077
-22.5418
-22.57006
-21.0962
-21.05898
-20.47601
-19.4781
-19.51304
-21.69738
-21.6597
-21.64403
-21.78034
-21.74186
-21.76584
-21.84182
-21.80239
-21.82531
-21.90486
-21.86433
-21.89241
-21.74303
-21.70081
-21.84513
-22.9708
-23.02286
-21.12651
-21.1252
-20.50618
-19.53684
-19.53671
-21.72794
-21.7265
-21.67415
-21.81338
-21.81144
-21.79823
-21.87751
-21.87504
-21.86033
-21.94341
-21.94036
-21.9302
-21.78653
-21.78251
-21.88683
-23.08816
-23.09898
-21.12917
-21.12841
-20.50801
-19.53565
-19.5359
-21.73149
-21.73046
-21.67746
-21.81809
-21.8169
-21.80263
-21.88362
-21.8822
-21.86606
-21.95123
-21.94948
-21.93755
-21.79665
-21.79456
-21.89625
-23.12211
-23.12741
-21.12125
-21.12783
-20.49888
-19.53428
-19.52803
-21.72511
-21.73127
-21.67105
-21.81144
-21.81781
-21.79603
-21.87709
-21.88357
-21.85945
-21.94527
-21.95175
-21.93142
-21.79029
-21.79716
-21.89034
-23.13162
-23.124
-20.87184
-20.99801
-20.25322
-19.40763
-19.28783
-21.47032
-21.60129
-21.41657
-21.55516
-21.68658
-21.54019
-21.61864
-21.75099
-21.60159
-21.68404
-21.81781
-21.67097
-21.52609
-21.66049
-21.62659
-22.98722
-22.85996
-21.01827
-21.17072
-21.60451
-21.65131
-21.70004
-21.70728
-21.7287
-21.73679
-21.75997
-21.76256
-21.67308
-21.57202
-133.7514
-133.3158
-23.12419
-132.7185
-20.37629
-134.4361
-133.9252
-23.80994
-134.3879
-134.4846
-133.9741
-23.83876
-134.4812
-134.4844
-133.9728
-23.84205
-134.4858
-134.4577
-133.9434
-23.84185
-134.4701
-134.1956
-133.6781
-23.62487
-134.3131
-134.2405
-134.198
-133.1601
-20.89184
-134.9685
-134.9261
-134.9195
-135.0191
-134.9763
-135.0152
-135.0215
-134.9783
-135.0222
-134.9984
-134.9549
-135.0097
-134.7397
-134.6954
-134.8565
-134.2849
-134.2815
-133.2062
-20.90453
-135.012
-135.0089
-134.9628
-135.0639
-135.0605
-135.0598
-135.0669
-135.0635
-135.0675
-135.0441
-135.0406
-135.0553
-134.7869
-134.7832
-134.9028
-134.2867
-134.2875
-133.2081
-20.90123
-135.0138
-135.0145
-134.9645
-135.0658
-135.0666
-135.0616
-135.0689
-135.0697
-135.0695
-135.046
-135.0469
-135.0573
-134.789
-134.7899
-134.9048
-134.263
-134.2746
-133.1832
-20.89927
-134.9909
-135.0021
-134.9417
-135.0419
-135.0534
-135.0379
-135.0445
-135.0562
-135.0452
-135.0215
-135.0333
-135.0328
-134.7633
-134.7756
-134.8798
-133.9876
-134.1181
-132.9096
-20.66748
-134.7091
-134.8449
-134.6605
-134.758
-134.8944
-134.7545
-134.7589
-134.896
-134.7599
-134.7339
-134.872
-134.7458
-134.4728
-134.6118
-134.5902
-21.44274
-21.30569
-20.87614
-22.14028
-22.01403
-22.52965
-22.51964
-22.38133
-21.59995
-21.58927
-22.60648
-22.78488
-22.64649
-22.67354
-22.804
-22.66549
-21.61446
-21.61157
-22.67657
-22.81682
-22.6776
-22.67856
-22.81756
-22.67805
-21.62787
-21.62464
-22.67929
-22.8208
-22.68041
-22.68246
-22.8223
-22.68161
-21.583
-21.61393
-22.68153
-22.81813
-22.67653
-22.62943
-22.80402
-22.66206
-21.31332
-21.28012
-22.56428
-22.60805
-22.46549
-22.27295
-22.5558
-22.42445
-19.40948
-19.28726
-19.00299
-19.4418
-19.35314
-19.68324
-19.66004
-19.56413
-20.90673
-20.38334
-21.06077
-20.86015
-20.2455
-20.98743
-21.15247
-21.30989
-21.28285
-21.23479
-20.7035
-21.25479
-21.45419
-21.4014
-21.58674
-21.48528
-21.50552
-21.61802
-21.29635
-20.76233
-21.30989
-21.53463
-21.52087
-21.66808
-21.54822
-21.5623
-21.68199
-21.35423
-20.81549
-21.36961
-21.59253
-21.57701
-21.72747
-21.60864
-21.62482
-21.74404
-21.39486
-20.84923
-21.37765
-21.65088
-21.63973
-21.78794
-21.65294
-21.63663
-21.79061
-21.04274
-20.52299
-20.70171
-21.48415
-21.58709
-21.62268
-21.29174
-20.92191
-21.42915
-22.88291
-22.74416
-23.73922
-24.83294
-24.20626
-24.56875
-25.1369
-24.42594
-19.53512
-19.52906
-19.74988
-19.87762
-19.78306
-19.80273
-19.8918
-19.79771
-21.39223
-21.35496
-21.55153
-21.11408
-20.49403
-21.12193
-21.40998
-21.56927
-21.41772
-21.72901
-21.69116
-21.74985
-21.71532
-21.66185
-21.72322
-21.74712
-21.76814
-21.75517
-21.79474
-21.75604
-21.80969
-21.79902
-21.78433
-21.80758
-21.81362
-21.82877
-21.82236
-21.85898
-21.8193
-21.87629
-21.86131
-21.8446
-21.87057
-21.87869
-21.89621
-21.88812
-21.9083
-21.86744
-21.8934
-21.92523
-21.91255
-21.93524
-21.92893
-21.91435
-21.93916
-21.55105
-21.50791
-21.18329
-21.76493
-21.86647
-21.77626
-21.57389
-21.20818
-21.58605
-23.07411
-23.05424
-24.65851
-25.43521
-24.71251
-24.76803
-25.47024
-24.74598
-19.53575
-19.53619
-19.80373
-19.89621
-19.80308
-19.80152
-19.89514
-19.80219
-21.42217
-21.42089
-21.58141
-21.12719
-20.50667
-21.12775
-21.42286
-21.58211
-21.42348
-21.76014
-21.75859
-21.7816
-21.72878
-21.67491
-21.72956
-21.76108
-21.78265
-21.76193
-21.82844
-21.82637
-21.84405
-21.81464
-21.79939
-21.81575
-21.82981
-21.84554
-21.83102
-21.89536
-21.89275
-21.91336
-21.87924
-21.86194
-21.88074
-21.89721
-21.91534
-21.89882
-21.9477
-21.94447
-21.93381
-21.94566
-21.93231
-21.94762
-21.9501
-21.93639
-21.9522
-21.59759
-21.59301
-21.23624
-21.78959
-21.88961
-21.7922
-21.6011
-21.24074
-21.60405
-23.11562
-23.10798
-24.78429
-25.52535
-24.7972
-24.81746
-25.53723
-24.80811
-19.53619
-19.53625
-19.80134
-19.89443
-19.80165
-19.80249
-19.89504
-19.80219
-21.4251
-21.42422
-21.58451
-21.12982
-20.50843
-21.12982
-21.42591
-21.5854
-21.4261
-21.76396
-21.76289
-21.7857
-21.73245
-21.6784
-21.7328
-21.76493
-21.78668
-21.76527
-21.83347
-21.83224
-21.84942
-21.81911
-21.80363
-21.81944
-21.83452
-21.85051
-21.83486
-21.90186
-21.90037
-21.92028
-21.8848
-21.86719
-21.88521
-21.9031
-21.92158
-21.90354
-21.95601
-21.95417
-21.94266
-21.95267
-21.93892
-21.95327
-21.95753
-21.94423
-21.95818
-21.60884
-21.60664
-21.25019
-21.79827
-21.89787
-21.79888
-21.61045
-21.25195
-21.61093
-23.13316
-23.13126
-24.82545
-25.56307
-24.83204
-24.8397
-25.56829
-24.83695
-19.4766
-19.5118
-19.80113
-19.88922
-19.79575
-19.74711
-19.87456
-19.78072
-21.41807
-21.42438
-21.57793
-21.10459
-20.48168
-21.06852
-21.4017
-21.56168
-21.36575
-21.75751
-21.76372
-21.77917
-21.70884
-21.65482
-21.67277
-21.74118
-21.76276
-21.70503
-21.82681
-21.83322
-21.84277
-21.79489
-21.77955
-21.75845
-21.81019
-21.82609
-21.77365
-21.89543
-21.90192
-21.91399
-21.8603
-21.84272
-21.82347
-21.8786
-21.89712
-21.84168
-21.95018
-21.95667
-21.93688
-21.92832
-21.91452
-21.89109
-21.93319
-21.91978
-21.89582
-21.60166
-21.60894
-21.24211
-21.77272
-21.87308
-21.73466
-21.58356
-21.22301
-21.54498
-23.06402
-23.10455
-24.83886
-25.56312
-24.83192
-24.77344
-25.54403
-24.81318
-18.84325
-19.09786
-19.67997
-19.65884
-19.56401
-19.20933
-19.47574
-19.38826
-21.16575
-21.29484
-21.32414
-20.64445
-20.06262
-20.17121
-20.92289
-21.07808
-20.40925
-21.52037
-21.3792
-21.5638
-22.82909
-22.38568
-22.73824
-23.08384
-22.60348
-21.50242
-21.63348
-21.52372
-21.22339
-21.16978
-20.70326
-21.25547
-21.27671
-20.73555
-21.69093
-21.67671
-22.81587
-23.33489
-22.85668
-22.88541
-23.35376
-22.87651
-21.57002
-21.70164
-21.58545
-21.30783
-21.29306
-20.78752
-21.32243
-21.33754
-20.80172
-21.72121
-21.71411
-22.88935
-23.36575
-22.89133
-22.8943
-23.36617
-22.89276
-21.63635
-21.76902
-21.65425
-21.36992
-21.3533
-20.84751
-21.38715
-21.40449
-20.86399
-21.75338
-21.74516
-22.89611
-23.36843
-22.89835
-22.90279
-23.36955
-22.90072
-21.6881
-21.8223
-21.67392
-21.43299
-21.4206
-20.9069
-21.43634
-21.42155
-20.90895
-21.73062
-21.75569
-22.90313
-23.36419
-22.89945
-22.85511
-23.34963
-22.88635
-21.33759
-21.47056
-20.97781
-21.27501
-21.37403
-20.74862
-21.09568
-20.76447
-20.59636
-22.73225
-21.54646
-22.70462
-21.45909
-24.69741
-25.29274
-24.56964
-22.79141
-23.13526
-22.68328
-24.01991
-22.49763
-25.02415
-22.93117
-24.3809
-22.54403
-134.1365
-133.6346
-23.54229
-134.2997
-133.9855
-132.9084
-20.67372
-134.119
-134.4006
-134.5687
-134.5378
-134.4615
-133.9509
-23.82826
-134.4744
-134.7062
-134.6577
-134.8456
-134.7318
-134.7446
-134.8713
-134.4861
-133.9755
-23.839
-134.4865
-134.7551
-134.7516
-134.8951
-134.7569
-134.7575
-134.897
-134.4817
-133.9697
-23.84392
-134.4776
-134.756
-134.757
-134.8967
-134.7537
-134.75
-134.8946
-134.4341
-133.919
-23.8286
-134.3913
-134.7309
-134.7428
-134.8727
-134.7079
-134.6656
-134.85
-134.0972
-133.5682
-23.44951
-134.3305
-26.9386
-134.4701
-134.5873
-134.6127
-134.3744
-134.5947
-27.36444
-134.5167
-134.6596
-134.6173
-134.8295
-134.2634
-133.1835
-20.90426
-134.2749
-134.6822
-134.8521
-134.6934
-134.9945
-134.952
-135.0078
-134.9912
-134.942
-135.0023
-135.0173
-135.0307
-135.0285
-135.0212
-134.9783
-135.0222
-135.0422
-135.0382
-135.0536
-135.0444
-135.0454
-135.0559
-135.0196
-134.9763
-135.0164
-135.0448
-135.0454
-135.0564
-135.043
-135.0398
-135.0546
-134.9759
-134.9323
-134.9343
-135.0218
-135.0331
-135.0335
-134.9993
-134.9578
-135.011
-134.6443
-134.5995
-134.8648
-27.68245
-134.7637
-134.8801
-134.7758
-134.6688
-134.8902
-27.71951
-134.6814
-134.7031
-134.6999
-134.8728
-134.2867
-133.2082
-20.9026
-134.2875
-134.7049
-134.8746
-134.7056
-135.0385
-135.0353
-135.0521
-135.0138
-134.9646
-135.0145
-135.0403
-135.054
-135.041
-135.0662
-135.0629
-135.0674
-135.0658
-135.0617
-135.0666
-135.0682
-135.0694
-135.069
-135.0651
-135.0617
-135.062
-135.069
-135.0695
-135.0697
-135.0672
-135.064
-135.0679
-135.0216
-135.0182
-134.9803
-135.0461
-135.0574
-135.0469
-135.0237
-134.9823
-135.0244
-134.693
-134.6891
-134.9159
-27.77959
-134.7891
-134.9049
-134.7899
-134.6953
-134.9184
-27.79288
-134.6963
-134.7048
-134.7056
-134.8745
-134.2847
-133.206
-20.90225
-134.2813
-134.703
-134.8727
-134.6998
-135.0403
-135.041
-135.0539
-135.0119
-134.9627
-135.0087
-135.0384
-135.052
-135.0351
-135.0682
-135.069
-135.0693
-135.0638
-135.0597
-135.0604
-135.0661
-135.0673
-135.0627
-135.0671
-135.0679
-135.0639
-135.0668
-135.0674
-135.0633
-135.065
-135.0619
-135.0615
-135.0236
-135.0244
-134.9822
-135.044
-135.0552
-135.0404
-135.0216
-134.9802
-135.018
-134.6952
-134.6962
-134.9183
-27.82255
-134.7868
-134.9027
-134.783
-134.6928
-134.9157
-27.8289
-134.6888
-134.6819
-134.6931
-134.8518
-134.24
-133.1596
-20.88593
-134.1974
-134.6592
-134.8291
-134.6168
-135.017
-135.0283
-135.0304
-134.9682
-134.9191
-134.9256
-134.9942
-135.0074
-134.9515
-135.0441
-135.0557
-135.0451
-135.0188
-135.0148
-134.9757
-135.0209
-135.0218
-134.9778
-135.0427
-135.0544
-135.0395
-135.0211
-135.0218
-134.9778
-135.0193
-135.0161
-134.9758
-134.9991
-135.0109
-134.9575
-134.998
-135.0094
-134.9544
-134.9756
-134.9339
-134.9318
-134.6683
-134.6811
-134.8896
-27.82627
-134.7392
-134.8561
-134.6948
-134.6437
-134.864
-27.80757
-134.5987
-134.4032
-134.5369
-134.5715
-133.7855
-132.7424
-20.39403
-133.5037
-23.82243
-134.175
-134.3387
-133.8305
-24.23727
-134.7346
-134.8706
-134.7475
-134.4751
-134.4269
-134.1219
-24.50448
-134.5005
-134.5134
-134.1476
-24.52275
-134.7598
-134.8963
-134.7603
-134.5236
-134.5202
-134.1708
-24.5331
-134.5252
-134.5255
-134.1722
-24.53328
-134.7566
-134.8939
-134.7529
-134.5235
-134.5249
-134.1695
-24.53617
-134.5208
-134.5167
-134.1664
-24.53797
-134.7108
-134.8493
-134.6686
-134.4968
-134.5092
-134.1402
-24.53568
-134.4732
-134.4305
-134.1158
-24.52234
-134.3765
-134.5157
-134.5957
-27.5458
-134.2342
-134.3522
-133.8742
-24.31793
-134.1314
-134.3543
-27.1739
-133.7562
-24.13995
)
;
        qro             uniform 0;
    }
    air_to_floor
    {
        type            greyDiffusiveRadiationViewFactor;
        value           nonuniform List<scalar> 
900
(
69.5906
73.3567
76.77111
79.84201
82.57963
84.99606
87.10537
88.92253
90.49075
91.80335
92.85119
93.65963
94.27109
94.68353
94.88192
94.85254
94.6048
94.1437
93.45899
92.54636
91.38393
89.95543
88.25761
86.28912
84.02991
81.46707
78.58847
75.38331
71.84215
67.95738
73.44995
77.14914
80.49176
83.48784
86.14977
88.49157
90.52894
92.27826
93.78298
95.03864
96.03913
96.81019
97.3915
97.78223
97.96793
97.93786
97.70116
97.25976
96.60223
95.72311
94.6035
93.22742
91.58787
89.68091
87.48761
84.99379
82.18567
79.05049
75.57681
71.75498
76.96194
80.58974
83.85647
86.77414
89.35715
91.62149
93.58445
95.26364
96.70303
97.8998
98.85132
99.58365
100.1336
100.5021
100.6753
100.6449
100.4186
99.99736
99.36795
98.5236
97.44817
96.12601
94.54647
92.70309
90.57814
88.15621
85.42188
82.36049
78.95861
75.20459
80.13443
83.68826
86.87697
89.71452
92.21726
94.40305
96.29076
97.89959
99.27274
100.4103
101.3124
102.0053
102.5237
102.8699
103.0307
103
102.7838
102.3827
101.7815
100.9724
99.94148
98.67345
97.1545
95.37499
93.3192
90.97028
88.3112
85.32546
81.99771
78.31436
82.97715
86.45643
89.56699
92.32466
94.74764
96.85556
98.66881
100.2084
101.516
102.5951
103.4484
104.1023
104.5894
104.9137
105.0627
105.0313
104.825
104.4434
103.8701
103.0958
102.1086
100.8937
99.43439
97.71777
95.73035
93.45384
90.86964
87.9595
84.70626
81.09441
85.50122
88.90736
91.9416
94.62152
96.96703
98.99946
100.7407
102.2133
103.4575
104.4803
105.2863
105.9022
106.3591
106.6623
106.8003
106.7678
106.571
106.208
105.6613
104.9207
103.9756
102.8117
101.4097
99.7537
97.83232
95.62597
93.11454
90.27813
87.09782
83.55632
87.71936
91.05543
94.01682
96.6227
98.89462
100.8555
102.5286
103.9377
105.1222
106.0916
106.853
107.4327
107.861
108.1442
108.2719
108.238
108.0502
107.7046
107.183
106.4739
105.5684
104.4524
103.1041
101.5053
99.6463
97.50637
95.06411
92.29801
89.18749
85.71362
89.645
92.9154
95.80869
98.34583
100.5496
102.4443
104.0543
105.4046
106.5341
107.4539
108.1742
108.7201
109.1221
109.3869
109.5047
109.4694
109.2899
108.9603
108.4615
107.7814
106.9123
105.8403
104.5413
102.9951
101.1936
99.11508
96.73676
94.03602
90.99098
87.58077
91.30978
94.51848
97.34804
99.82044
101.96
103.7923
105.3433
106.6386
107.7171
108.5907
109.2725
109.7871
110.1645
110.4126
110.5209
110.4844
110.3124
109.9978
109.5204
108.8673
108.0321
107.0008
105.7478
104.2508
102.5035
100.4831
98.16544
95.5265
92.54279
89.19242
92.71051
95.86382
98.63611
101.0507
103.133
104.9098
106.408
107.6541
108.6869
109.5192
110.1666
110.6533
111.0087
111.2421
111.3417
111.304
111.1386
110.8374
110.3789
109.7498
108.9448
107.9499
106.7381
105.2852
103.5862
101.6174
99.3537
96.76998
93.84149
90.54496
93.84342
96.95106
99.67601
102.0426
104.0773
105.8078
107.2619
108.467
109.4615
110.2592
110.8774
111.3404
111.6774
111.898
111.9902
111.9516
111.7913
111.5014
111.059
110.45
109.6703
108.7056
107.5278
106.1112
104.4521
102.526
100.3071
97.769
94.88606
91.6339
94.728
97.79981
100.4874
102.8158
104.8124
106.5057
107.9242
109.0961
110.0594
110.8295
111.4235
111.8674
112.1895
112.3997
112.486
112.4467
112.2907
112.0098
111.5802
110.9874
110.2274
109.287
108.1365
106.7492
105.1222
103.2303
101.047
98.54518
95.69814
92.48074
95.39297
98.43708
101.0945
103.3924
105.3586
107.0224
108.4128
109.5585
110.4973
111.2458
111.8209
112.2497
112.5607
112.7625
112.844
112.8041
112.6514
112.3775
111.9583
111.3781
110.6338
109.7127
108.5837
107.221
105.6196
103.755
101.6002
99.12756
96.3096
93.11902
129.5559
98.86261
101.4998
103.7761
105.721
107.3641
108.7349
109.8625
110.7844
111.518
112.08
112.4982
112.8012
112.9971
113.0752
113.0349
112.8843
112.6153
112.2035
111.6324
110.8992
109.9917
108.8792
69.97165
68.38949
66.54407
64.40945
61.95751
59.15901
93.55154
129.7817
99.07779
101.7035
103.9682
105.902
107.5346
108.8954
110.0134
110.9262
111.6518
112.207
112.6196
112.9184
113.1112
113.1876
113.147
112.9976
112.7311
112.3232
111.7566
111.0293
110.1291
109.0247
70.12726
68.55457
66.71922
64.59521
62.15442
59.36862
56.21022
129.78
99.07615
101.7019
103.9666
105.9005
107.533
108.8937
110.0117
110.9244
111.6499
112.2051
112.6176
112.9164
113.1091
113.1854
113.1448
112.9953
112.7288
112.3208
111.7541
111.0268
110.1266
109.0222
70.12485
68.5522
66.7169
64.59294
62.15219
59.36651
56.20958
129.5501
98.8581
101.4953
103.7715
105.7164
107.3594
108.7302
109.8576
110.7794
111.5127
112.0745
112.4926
112.7954
112.991
113.0689
113.0284
112.8777
112.6086
112.1967
111.6254
110.8921
109.9847
108.8722
69.96616
68.38415
66.53885
64.40439
61.95267
59.15581
55.98732
129.1009
98.42838
101.0869
103.3846
105.3507
107.0142
108.4045
109.55
110.4886
111.2368
111.8116
112.2403
112.5509
112.7524
112.8336
112.7934
112.6404
112.3664
111.947
111.3666
110.6222
109.701
108.5735
69.65123
68.05142
66.18709
64.03261
61.56027
58.74273
55.55394
94.71542
97.78819
100.4755
102.8036
104.7998
106.4927
107.9108
109.0823
110.0453
110.8151
111.4087
111.8523
112.1742
112.384
112.47
112.4303
112.2741
111.993
111.5631
110.9699
110.2098
109.2694
108.1204
69.17361
67.54838
65.6569
63.47402
60.97268
58.12618
54.90936
93.82512
96.93223
99.6566
102.0226
104.0567
105.7865
107.2401
108.4445
109.4383
110.2355
110.8532
111.3157
111.6523
111.8725
111.9644
111.9255
111.765
111.4749
111.0322
110.4231
109.6433
108.6786
107.5011
106.0864
104.4279
102.5023
100.284
97.74669
94.86454
91.61318
92.68426
95.8367
98.60809
101.0217
103.1031
104.879
106.3762
107.6214
108.6533
109.4849
110.1316
110.6176
110.9725
111.2053
111.3045
111.2665
111.1009
110.7996
110.3411
109.712
108.9071
107.9125
106.7011
105.2488
103.5505
101.5825
99.31978
96.73708
93.80963
90.51425
91.27547
94.48298
97.31131
99.78246
101.9207
103.7517
105.3014
106.5955
107.6728
108.5453
109.2262
109.74
110.1167
110.3643
110.4722
110.4353
110.2633
109.9485
109.4712
108.8183
107.9834
106.9527
105.7004
104.2042
102.458
100.4387
98.12226
95.48457
92.501
89.15325
89.60116
92.86999
95.76168
98.29719
100.4993
102.3923
104.0006
105.3492
106.4773
107.3957
108.1147
108.6596
109.0607
109.325
109.4424
109.4068
109.2273
108.8977
108.3992
107.7195
106.8509
105.7797
104.4817
102.9367
101.1367
99.05962
96.68289
93.98256
124.6567
87.53069
87.66367
90.99771
93.95701
96.56078
98.83055
100.7892
102.4602
103.8672
105.0497
106.0174
106.7773
107.3556
107.7829
108.0655
108.1927
108.1586
107.9709
107.6255
107.1043
106.396
105.4914
104.3765
103.0296
101.4324
99.57522
97.43725
94.99703
92.23298
89.12342
85.65296
85.43379
88.83744
91.86913
94.54646
96.88936
98.91917
100.6578
102.1279
103.3698
104.3906
105.1947
105.809
106.2648
106.5672
106.7048
106.672
106.4754
106.1127
105.5668
104.8271
103.8832
102.7208
101.3205
99.66655
97.74741
95.54342
93.03445
90.20059
87.02285
83.484
82.89823
86.37458
89.48217
92.23683
94.65677
96.76166
98.5719
100.1086
101.4135
102.4904
103.3415
103.9936
104.4794
104.8029
104.9515
104.9199
104.7137
104.3326
103.7602
102.9872
102.0015
100.7884
99.33114
97.6169
95.63209
93.35832
90.77697
87.86977
84.6195
81.01066
80.04442
83.59492
86.78025
89.61439
92.11371
94.29609
96.18045
97.78604
99.15631
100.2913
101.191
101.882
102.3989
102.7442
102.9045
102.8737
102.6578
102.2573
101.6572
100.8496
99.82044
98.55449
97.03784
95.26105
93.2082
90.86238
88.2065
85.22405
81.89964
78.21966
76.86133
80.48543
83.74842
86.66232
89.24157
91.50218
93.46148
95.13715
96.57343
97.76741
98.71638
99.44656
99.995
100.3626
100.5353
100.5048
100.2788
99.85826
99.23008
98.3874
97.31401
95.99419
94.41721
92.57682
90.4551
88.03659
85.30579
82.248
78.84979
75.09948
73.33931
77.03445
80.37303
83.36502
86.0229
88.36069
90.39414
92.13973
93.64114
94.89381
95.89161
96.6604
97.24009
97.62983
97.81506
97.7849
97.54854
97.10801
96.45183
95.57454
94.45717
93.08364
91.44688
89.54315
87.35334
84.8632
82.05889
78.92761
75.4579
71.64007
69.47058
73.23219
76.64252
79.7089
82.44235
84.85441
86.95964
88.77288
90.33767
91.64699
92.69213
93.49822
94.108
94.51941
94.71732
94.68786
94.44053
93.98037
93.29712
92.38645
91.22643
89.80065
88.10582
86.14074
83.88523
81.32632
78.45177
75.25076
71.71384
67.83335
)
;
        qro             uniform 0;
    }
}


// ************************************************************************* //
