/*--------------------------------*- C++ -*----------------------------------*\
| =========                 |                                                 |
| \\      /  F ield         | OpenFOAM: The Open Source CFD Toolbox           |
|  \\    /   O peration     | Version:  2506                                  |
|   \\  /    A nd           | Website:  www.openfoam.com                      |
|    \\/     M anipulation  |                                                 |
\*---------------------------------------------------------------------------*/
FoamFile
{
    version     2.0;
    format      ascii;
    arch        "LSB;label=32;scalar=64";
    class       volScalarField;
    location    "500/air";
    object      T;
}
// * * * * * * * * * * * * * * * * * * * * * * * * * * * * * * * * * * * * * //

dimensions      [0 0 0 1 0 0 0];

internalField   nonuniform List<scalar> 
33752
(
300.0022
300.0168
300.0281
300.038
300.0473
300.056
300.0642
300.072
300.0793
300.0863
300.093
300.0993
300.1053
300.1109
300.1162
300.1211
300.1256
300.1297
300.1332
300.1364
300.139
300.1412
300.143
300.1444
300.1455
300.1462
300.1467
300.1471
300.1472
300.1472
300.0024
300.0175
300.0288
300.0387
300.0479
300.0566
300.0648
300.0726
300.0799
300.0869
300.0936
300.1
300.106
300.1118
300.1171
300.122
300.1266
300.1306
300.1342
300.1373
300.1399
300.1421
300.1439
300.1452
300.1462
300.147
300.1474
300.1477
300.1478
300.1479
300.0025
300.0181
300.0297
300.0397
300.0489
300.0575
300.0657
300.0735
300.0809
300.088
300.0948
300.1013
300.1074
300.1132
300.1187
300.1237
300.1283
300.1324
300.136
300.139
300.1416
300.1438
300.1454
300.1467
300.1476
300.1483
300.1487
300.1489
300.149
300.149
300.0026
300.0187
300.0306
300.0407
300.0499
300.0586
300.0668
300.0747
300.0822
300.0894
300.0964
300.103
300.1093
300.1153
300.1209
300.1261
300.1307
300.1349
300.1385
300.1416
300.1441
300.1461
300.1477
300.1488
300.1496
300.1501
300.1504
300.1505
300.1505
300.1505
300.0027
300.0193
300.0314
300.0416
300.051
300.0597
300.0681
300.076
300.0837
300.0912
300.0983
300.1052
300.1118
300.118
300.1238
300.1291
300.134
300.1382
300.1419
300.1449
300.1473
300.1492
300.1506
300.1516
300.1522
300.1525
300.1526
300.1526
300.1525
300.1524
300.0028
300.0197
300.0321
300.0425
300.052
300.0609
300.0694
300.0776
300.0855
300.0932
300.1006
300.1078
300.1147
300.1212
300.1274
300.133
300.138
300.1423
300.146
300.149
300.1513
300.153
300.1542
300.155
300.1553
300.1554
300.1553
300.1551
300.1549
300.1547
300.0029
300.0201
300.0327
300.0434
300.0531
300.0622
300.0709
300.0793
300.0874
300.0954
300.1032
300.1108
300.1181
300.125
300.1315
300.1374
300.1426
300.1471
300.1508
300.1537
300.1559
300.1574
300.1584
300.1588
300.1589
300.1587
300.1584
300.158
300.1576
300.1573
300.0029
300.0204
300.0333
300.0442
300.0541
300.0634
300.0723
300.081
300.0895
300.0979
300.1061
300.1141
300.1219
300.1292
300.1361
300.1423
300.1478
300.1524
300.1562
300.159
300.1611
300.1623
300.1629
300.163
300.1628
300.1623
300.1617
300.161
300.1604
300.16
300.003
300.0206
300.0338
300.045
300.0551
300.0647
300.0738
300.0828
300.0916
300.1004
300.1091
300.1176
300.1259
300.1337
300.1411
300.1477
300.1535
300.1583
300.1621
300.1648
300.1666
300.1676
300.1678
300.1676
300.1669
300.166
300.1651
300.1641
300.1634
300.1628
300.003
300.0209
300.0342
300.0456
300.056
300.0658
300.0753
300.0846
300.0938
300.103
300.1121
300.1211
300.13
300.1384
300.1462
300.1533
300.1594
300.1644
300.1683
300.1709
300.1725
300.1731
300.1729
300.1722
300.1711
300.1698
300.1685
300.1673
300.1663
300.1656
300.003
300.021
300.0346
300.0463
300.0569
300.0669
300.0766
300.0862
300.0958
300.1054
300.115
300.1246
300.134
300.143
300.1514
300.1589
300.1654
300.1706
300.1745
300.177
300.1783
300.1785
300.1779
300.1767
300.1751
300.1734
300.1717
300.1702
300.169
300.1682
300.0031
300.0212
300.035
300.0468
300.0576
300.0678
300.0778
300.0877
300.0976
300.1076
300.1177
300.1278
300.1377
300.1473
300.1562
300.1643
300.1711
300.1766
300.1805
300.1828
300.1838
300.1836
300.1825
300.1808
300.1788
300.1767
300.1746
300.1728
300.1713
300.1704
300.0031
300.0213
300.0352
300.0472
300.0581
300.0686
300.0788
300.0889
300.0991
300.1095
300.1199
300.1305
300.1408
300.1509
300.1604
300.1689
300.1761
300.1817
300.1857
300.1879
300.1886
300.188
300.1865
300.1842
300.1816
300.1791
300.1767
300.1746
300.173
300.172
300.0035
300.0215
300.0354
300.0475
300.0586
300.0691
300.0795
300.0898
300.1002
300.1108
300.1216
300.1324
300.1432
300.1537
300.1635
300.1723
300.1798
300.1856
300.1896
300.1917
300.1922
300.1913
300.1893
300.1855
300.1823
300.1794
300.1767
300.1744
300.1727
300.1725
300.0036
300.0216
300.0355
300.0476
300.0588
300.0694
300.0799
300.0903
300.1008
300.1116
300.1225
300.1335
300.1445
300.1552
300.1652
300.1743
300.1819
300.1878
300.1918
300.1939
300.1942
300.1931
300.1909
300.1868
300.1833
300.1801
300.1773
300.1749
300.173
300.1719
300.0036
300.0216
300.0355
300.0477
300.0588
300.0695
300.0799
300.0903
300.1009
300.1116
300.1226
300.1336
300.1446
300.1553
300.1653
300.1744
300.182
300.1879
300.1919
300.194
300.1943
300.1932
300.191
300.1868
300.1833
300.1801
300.1773
300.1748
300.173
300.1718
300.0036
300.0215
300.0355
300.0475
300.0586
300.0692
300.0796
300.09
300.1004
300.111
300.1218
300.1327
300.1435
300.154
300.1638
300.1727
300.1802
300.186
300.1899
300.1921
300.1925
300.1916
300.1895
300.1856
300.1822
300.1792
300.1765
300.1741
300.1723
300.1712
300.0035
300.0215
300.0353
300.0473
300.0583
300.0688
300.079
300.0892
300.0994
300.1098
300.1203
300.1309
300.1413
300.1514
300.1609
300.1694
300.1766
300.1823
300.1862
300.1885
300.1892
300.1885
300.1868
300.1832
300.1802
300.1774
300.1749
300.1728
300.1711
300.17
300.0031
300.0212
300.035
300.0469
300.0578
300.0681
300.0781
300.0881
300.098
300.1081
300.1182
300.1284
300.1383
300.1479
300.1569
300.165
300.1719
300.1774
300.1813
300.1836
300.1846
300.1843
300.1831
300.1801
300.1776
300.1752
300.1731
300.1712
300.1697
300.1687
300.003
300.0211
300.0347
300.0464
300.0571
300.0672
300.077
300.0866
300.0963
300.106
300.1157
300.1253
300.1348
300.1438
300.1523
300.1599
300.1664
300.1716
300.1755
300.178
300.1793
300.1794
300.1787
300.1773
300.1756
300.1738
300.172
300.1705
300.1692
300.1683
300.003
300.0209
300.0343
300.0458
300.0563
300.0661
300.0757
300.085
300.0944
300.1036
300.1129
300.122
300.1309
300.1394
300.1473
300.1544
300.1606
300.1656
300.1694
300.1721
300.1736
300.1742
300.1739
300.1731
300.172
300.1706
300.1692
300.168
300.1669
300.1662
300.003
300.0207
300.0339
300.0451
300.0553
300.065
300.0743
300.0833
300.0923
300.1011
300.1099
300.1186
300.1269
300.1349
300.1423
300.149
300.1548
300.1596
300.1634
300.1662
300.1679
300.1688
300.169
300.1687
300.168
300.167
300.166
300.1651
300.1643
300.1638
300.0029
300.0204
300.0333
300.0443
300.0543
300.0637
300.0728
300.0816
300.0902
300.0987
300.107
300.1152
300.123
300.1305
300.1374
300.1437
300.1492
300.1539
300.1577
300.1605
300.1625
300.1637
300.1643
300.1643
300.164
300.1634
300.1628
300.1621
300.1623
300.1614
300.0029
300.02
300.0327
300.0435
300.0533
300.0625
300.0713
300.0798
300.0881
300.0963
300.1042
300.1119
300.1193
300.1264
300.1329
300.1389
300.1441
300.1487
300.1524
300.1553
300.1574
300.1589
300.1598
300.1602
300.1602
300.16
300.1596
300.1591
300.1588
300.1585
300.0028
300.0196
300.032
300.0425
300.0521
300.0611
300.0698
300.0781
300.0862
300.094
300.1016
300.109
300.116
300.1227
300.1289
300.1346
300.1396
300.144
300.1477
300.1506
300.1529
300.1546
300.1558
300.1564
300.1567
300.1568
300.1566
300.1564
300.1561
300.1559
300.0027
300.0191
300.0312
300.0415
300.0509
300.0598
300.0683
300.0765
300.0844
300.092
300.0994
300.1064
300.1131
300.1195
300.1254
300.1308
300.1357
300.1399
300.1436
300.1466
300.149
300.1509
300.1522
300.1531
300.1537
300.1539
300.154
300.1539
300.1538
300.1537
300.0026
300.0185
300.0303
300.0404
300.0497
300.0586
300.067
300.075
300.0828
300.0903
300.0974
300.1042
300.1107
300.1168
300.1225
300.1278
300.1325
300.1367
300.1403
300.1433
300.1458
300.1478
300.1493
300.1504
300.1511
300.1516
300.1518
300.1519
300.1519
300.1518
300.0025
300.0178
300.0293
300.0393
300.0485
300.0573
300.0658
300.0738
300.0815
300.0888
300.0958
300.1025
300.1088
300.1148
300.1203
300.1254
300.13
300.1342
300.1378
300.1408
300.1434
300.1455
300.1471
300.1483
300.1492
300.1498
300.1501
300.1503
300.1503
300.1503
300.0024
300.017
300.0283
300.0382
300.0475
300.0563
300.0647
300.0728
300.0804
300.0877
300.0947
300.1012
300.1075
300.1133
300.1188
300.1238
300.1284
300.1324
300.136
300.1391
300.1417
300.1439
300.1456
300.1469
300.1478
300.1485
300.1489
300.1491
300.1492
300.1492
300.0021
300.0163
300.0274
300.0373
300.0467
300.0556
300.064
300.0721
300.0798
300.0871
300.094
300.1005
300.1067
300.1125
300.1179
300.1229
300.1274
300.1315
300.1351
300.1382
300.1408
300.143
300.1447
300.146
300.147
300.1477
300.1482
300.1485
300.1486
300.1486
300.0025
300.0144
300.0254
300.0358
300.0456
300.0548
300.0634
300.0716
300.0793
300.0866
300.0936
300.1001
300.1064
300.1122
300.1177
300.1227
300.1272
300.1313
300.1349
300.138
300.1406
300.1427
300.1445
300.1459
300.1469
300.1477
300.1482
300.1486
300.1488
300.1489
300.0036
300.0152
300.0262
300.0364
300.0461
300.0553
300.0639
300.072
300.0798
300.0871
300.0941
300.1008
300.1071
300.113
300.1185
300.1235
300.1281
300.1322
300.1358
300.1389
300.1414
300.1436
300.1453
300.1466
300.1476
300.1483
300.1488
300.1492
300.1494
300.1495
300.0039
300.0159
300.0271
300.0374
300.047
300.0561
300.0647
300.0729
300.0807
300.0882
300.0953
300.102
300.1085
300.1145
300.1201
300.1252
300.1299
300.134
300.1376
300.1406
300.1431
300.1452
300.1468
300.148
300.1489
300.1496
300.15
300.1503
300.1504
300.1505
300.0041
300.0166
300.028
300.0384
300.0481
300.0572
300.0658
300.0741
300.082
300.0896
300.0969
300.1039
300.1105
300.1167
300.1225
300.1277
300.1325
300.1366
300.1402
300.1432
300.1457
300.1476
300.1491
300.1501
300.1509
300.1514
300.1517
300.1518
300.1519
300.152
300.0043
300.0171
300.0289
300.0394
300.0492
300.0584
300.0671
300.0755
300.0836
300.0915
300.099
300.1063
300.1131
300.1196
300.1256
300.1311
300.1359
300.1401
300.1437
300.1466
300.149
300.1507
300.152
300.1529
300.1535
300.1538
300.1539
300.1539
300.1539
300.1538
300.0044
300.0176
300.0296
300.0404
300.0503
300.0597
300.0686
300.0772
300.0856
300.0937
300.1016
300.1091
300.1164
300.1232
300.1295
300.1352
300.1402
300.1445
300.1481
300.1509
300.1531
300.1546
300.1557
300.1563
300.1566
300.1566
300.1565
300.1563
300.1562
300.1561
300.0045
300.018
300.0303
300.0413
300.0515
300.061
300.0702
300.0791
300.0877
300.0962
300.1045
300.1125
300.1202
300.1274
300.134
300.14
300.1453
300.1496
300.1532
300.1559
300.1579
300.1592
300.1599
300.1602
300.1601
300.1599
300.1595
300.1591
300.1588
300.1586
300.0046
300.0184
300.0309
300.0422
300.0526
300.0624
300.0718
300.081
300.0901
300.099
300.1077
300.1162
300.1244
300.1321
300.1392
300.1456
300.151
300.1555
300.159
300.1616
300.1633
300.1642
300.1646
300.1645
300.164
300.1634
300.1627
300.1621
300.1616
300.1613
300.0047
300.0187
300.0315
300.043
300.0537
300.0637
300.0735
300.0831
300.0925
300.1019
300.1112
300.1203
300.129
300.1373
300.1449
300.1516
300.1573
300.1619
300.1653
300.1677
300.1691
300.1697
300.1696
300.169
300.1682
300.1672
300.1661
300.1652
300.1645
300.1641
300.0047
300.0189
300.032
300.0438
300.0547
300.0651
300.0751
300.0851
300.095
300.1049
300.1147
300.1244
300.1338
300.1427
300.1508
300.1579
300.1639
300.1686
300.172
300.1742
300.1752
300.1753
300.1748
300.1737
300.1724
300.1709
300.1695
300.1683
300.1674
300.1668
300.0048
300.0192
300.0325
300.0445
300.0556
300.0663
300.0767
300.087
300.0973
300.1077
300.1182
300.1285
300.1385
300.148
300.1567
300.1643
300.1706
300.1754
300.1787
300.1806
300.1813
300.1809
300.1798
300.1782
300.1764
300.1745
300.1727
300.1712
300.17
300.1694
300.0048
300.0193
300.0328
300.0451
300.0564
300.0673
300.078
300.0887
300.0995
300.1104
300.1213
300.1323
300.1429
300.153
300.1623
300.1703
300.1769
300.1818
300.185
300.1867
300.1869
300.1861
300.1845
300.1824
300.18
300.1777
300.1755
300.1737
300.1724
300.1716
300.0049
300.0195
300.0331
300.0455
300.0571
300.0682
300.0792
300.0901
300.1012
300.1125
300.124
300.1354
300.1467
300.1573
300.1671
300.1755
300.1823
300.1874
300.1905
300.1919
300.1918
300.1905
300.1884
300.1857
300.1829
300.1802
300.1777
300.1757
300.1742
300.1733
300.0049
300.0196
300.0334
300.0459
300.0576
300.0688
300.08
300.0911
300.1025
300.1141
300.1259
300.1378
300.1494
300.1605
300.1706
300.1794
300.1864
300.1915
300.1946
300.1958
300.1954
300.1938
300.1912
300.1881
300.1848
300.1818
300.1791
300.1768
300.1752
300.1743
300.005
300.0197
300.0335
300.046
300.0578
300.0692
300.0804
300.0917
300.1032
300.115
300.127
300.1391
300.1509
300.1622
300.1726
300.1815
300.1887
300.1938
300.1968
300.1979
300.1974
300.1955
300.1928
300.1894
300.1859
300.1827
300.1798
300.1775
300.1757
300.1748
300.005
300.0197
300.0335
300.0461
300.0578
300.0692
300.0804
300.0917
300.1033
300.1151
300.1271
300.1391
300.151
300.1623
300.1727
300.1816
300.1888
300.1939
300.197
300.1981
300.1975
300.1956
300.1929
300.1894
300.186
300.1827
300.1798
300.1775
300.1757
300.1747
300.0049
300.0196
300.0334
300.0459
300.0576
300.0689
300.08
300.0913
300.1027
300.1143
300.1262
300.138
300.1497
300.1608
300.171
300.1797
300.1868
300.1919
300.195
300.1962
300.1958
300.1941
300.1915
300.1883
300.1849
300.1818
300.1791
300.1768
300.1751
300.1742
300.0049
300.0195
300.0332
300.0456
300.0572
300.0683
300.0793
300.0903
300.1015
300.1128
300.1243
300.1358
300.1471
300.1578
300.1676
300.1761
300.183
300.188
300.1911
300.1925
300.1924
300.1911
300.1888
300.1859
300.183
300.1801
300.1776
300.1755
300.1739
300.173
300.0048
300.0194
300.0329
300.0451
300.0565
300.0675
300.0782
300.0889
300.0998
300.1107
300.1218
300.1328
300.1435
300.1537
300.163
300.1711
300.1777
300.1827
300.1859
300.1875
300.1878
300.1869
300.1851
300.1828
300.1802
300.1778
300.1756
300.1737
300.1723
300.1715
300.0048
300.0191
300.0325
300.0445
300.0557
300.0664
300.0769
300.0872
300.0977
300.1082
300.1187
300.1291
300.1393
300.1489
300.1576
300.1653
300.1716
300.1765
300.1798
300.1817
300.1823
300.1819
300.1807
300.179
300.177
300.1751
300.1732
300.1716
300.1705
300.1698
300.0047
300.0189
300.032
300.0438
300.0547
300.0652
300.0753
300.0853
300.0953
300.1053
300.1153
300.1251
300.1346
300.1436
300.1518
300.1591
300.1651
300.1698
300.1732
300.1754
300.1764
300.1765
300.1759
300.1747
300.1733
300.1718
300.1703
300.1691
300.1681
300.1675
300.0046
300.0186
300.0315
300.043
300.0537
300.0638
300.0736
300.0833
300.0929
300.1024
300.1118
300.121
300.1299
300.1383
300.146
300.1528
300.1586
300.1632
300.1667
300.1691
300.1705
300.171
300.1708
300.1702
300.1693
300.1682
300.1671
300.1662
300.1655
300.165
300.0046
300.0183
300.0308
300.0421
300.0525
300.0624
300.0719
300.0812
300.0904
300.0995
300.1084
300.117
300.1254
300.1332
300.1404
300.1468
300.1524
300.1569
300.1605
300.163
300.1647
300.1656
300.1659
300.1658
300.1653
300.1646
300.1639
300.1632
300.1628
300.1624
300.0045
300.0179
300.0301
300.0411
300.0513
300.0609
300.0702
300.0792
300.088
300.0967
300.1051
300.1133
300.1211
300.1285
300.1353
300.1414
300.1467
300.1511
300.1547
300.1574
300.1594
300.1607
300.1613
300.1616
300.1615
300.1611
300.1607
300.1603
300.16
300.1598
300.0043
300.0174
300.0293
300.0401
300.05
300.0594
300.0685
300.0772
300.0858
300.0941
300.1021
300.1099
300.1173
300.1243
300.1307
300.1365
300.1417
300.146
300.1496
300.1525
300.1547
300.1562
300.1572
300.1577
300.158
300.158
300.1578
300.1576
300.1574
300.1573
300.0042
300.0168
300.0284
300.0389
300.0487
300.0579
300.0668
300.0754
300.0837
300.0918
300.0995
300.107
300.1141
300.1207
300.1268
300.1324
300.1374
300.1417
300.1453
300.1483
300.1506
300.1523
300.1536
300.1544
300.1549
300.1552
300.1552
300.1552
300.1552
300.1551
300.004
300.0162
300.0274
300.0377
300.0473
300.0565
300.0653
300.0738
300.082
300.0898
300.0974
300.1046
300.1114
300.1178
300.1237
300.1291
300.1339
300.1382
300.1418
300.1448
300.1473
300.1492
300.1506
300.1517
300.1524
300.1528
300.1531
300.1532
300.1533
300.1533
300.0038
300.0154
300.0263
300.0365
300.0461
300.0552
300.064
300.0724
300.0805
300.0883
300.0956
300.1027
300.1093
300.1155
300.1213
300.1266
300.1313
300.1355
300.1391
300.1422
300.1448
300.1468
300.1484
300.1496
300.1505
300.151
300.1514
300.1517
300.1518
300.1518
300.0034
300.0145
300.0253
300.0354
300.045
300.0542
300.063
300.0714
300.0795
300.0872
300.0944
300.1014
300.1079
300.114
300.1197
300.1249
300.1296
300.1337
300.1374
300.1405
300.1431
300.1452
300.1469
300.1482
300.1491
300.1498
300.1503
300.1506
300.1508
300.1508
300.0024
300.0137
300.0245
300.0346
300.0443
300.0536
300.0624
300.0709
300.0789
300.0866
300.0938
300.1007
300.1072
300.1132
300.1188
300.124
300.1287
300.1328
300.1364
300.1396
300.1422
300.1444
300.1461
300.1474
300.1484
300.1492
300.1497
300.15
300.1502
300.1503
300.004
300.0141
300.0246
300.0352
300.0453
300.0548
300.0637
300.072
300.0799
300.0873
300.0944
300.101
300.1073
300.1132
300.1187
300.1237
300.1282
300.1322
300.1357
300.1387
300.1412
300.1433
300.1449
300.1462
300.1472
300.148
300.1485
300.1488
300.149
300.1491
300.0047
300.0152
300.0257
300.0361
300.046
300.0554
300.0642
300.0725
300.0804
300.0879
300.095
300.1017
300.1081
300.114
300.1195
300.1245
300.1291
300.1331
300.1366
300.1396
300.1421
300.1441
300.1457
300.147
300.1479
300.1486
300.1491
300.1494
300.1496
300.1496
300.0052
300.0163
300.027
300.0373
300.047
300.0563
300.0651
300.0734
300.0813
300.0889
300.0961
300.103
300.1095
300.1156
300.1212
300.1263
300.1309
300.1349
300.1384
300.1414
300.1438
300.1458
300.1473
300.1484
300.1492
300.1498
300.1502
300.1504
300.1506
300.1506
300.0056
300.0172
300.0282
300.0385
300.0482
300.0574
300.0662
300.0746
300.0827
300.0904
300.0979
300.1049
300.1116
300.1179
300.1237
300.1289
300.1336
300.1377
300.1412
300.1441
300.1464
300.1482
300.1496
300.1505
300.1512
300.1516
300.1519
300.152
300.1521
300.1521
300.0059
300.0179
300.0292
300.0397
300.0494
300.0587
300.0676
300.0762
300.0844
300.0924
300.1001
300.1075
300.1144
300.121
300.127
300.1324
300.1372
300.1414
300.1448
300.1476
300.1498
300.1514
300.1526
300.1533
300.1537
300.154
300.154
300.154
300.154
300.1539
300.0061
300.0185
300.0301
300.0408
300.0507
300.0601
300.0692
300.078
300.0865
300.0948
300.1028
300.1106
300.1179
300.1248
300.1311
300.1368
300.1418
300.146
300.1494
300.152
300.154
300.1554
300.1562
300.1567
300.1568
300.1568
300.1566
300.1564
300.1563
300.1562
300.0063
300.019
300.0309
300.0418
300.0519
300.0616
300.0709
300.08
300.0888
300.0975
300.106
300.1142
300.122
300.1294
300.1361
300.142
300.1472
300.1514
300.1547
300.1572
300.159
300.16
300.1605
300.1606
300.1604
300.16
300.1596
300.1592
300.1588
300.1587
300.0064
300.0194
300.0316
300.0428
300.0532
300.0631
300.0727
300.0821
300.0914
300.1005
300.1095
300.1183
300.1267
300.1346
300.1417
300.148
300.1534
300.1576
300.1609
300.1632
300.1646
300.1652
300.1653
300.165
300.1643
300.1636
300.1628
300.1622
300.1616
300.1613
300.0065
300.0198
300.0322
300.0437
300.0544
300.0646
300.0745
300.0843
300.0941
300.1038
300.1134
300.1228
300.1318
300.1403
300.148
300.1547
300.1602
300.1645
300.1677
300.1697
300.1707
300.1708
300.1704
300.1696
300.1685
300.1673
300.1662
300.1652
300.1645
300.1641
300.0066
300.0201
300.0328
300.0445
300.0555
300.066
300.0763
300.0866
300.0968
300.1071
300.1173
300.1274
300.1372
300.1463
300.1546
300.1617
300.1675
300.1719
300.1748
300.1765
300.177
300.1767
300.1757
300.1743
300.1727
300.1711
300.1696
300.1683
300.1673
300.1668
300.0067
300.0204
300.0333
300.0453
300.0565
300.0674
300.078
300.0887
300.0994
300.1103
300.1212
300.1321
300.1426
300.1524
300.1613
300.1688
300.1749
300.1793
300.182
300.1833
300.1834
300.1825
300.1809
300.1789
300.1768
300.1747
300.1727
300.1712
300.17
300.1694
300.0068
300.0206
300.0338
300.0459
300.0574
300.0685
300.0795
300.0906
300.1018
300.1133
300.1248
300.1364
300.1476
300.1581
300.1676
300.1756
300.1819
300.1863
300.1889
300.1898
300.1893
300.1878
300.1856
300.1831
300.1804
300.1779
300.1756
300.1737
300.1723
300.1716
300.0068
300.0208
300.0341
300.0465
300.0582
300.0695
300.0808
300.0922
300.1038
300.1157
300.1279
300.14
300.1519
300.1631
300.1731
300.1815
300.188
300.1924
300.1948
300.1953
300.1944
300.1924
300.1896
300.1865
300.1834
300.1805
300.1778
300.1757
300.1742
300.1734
300.0069
300.021
300.0344
300.0468
300.0587
300.0702
300.0817
300.0933
300.1053
300.1176
300.1301
300.1428
300.1551
300.1667
300.1772
300.1859
300.1925
300.1969
300.1992
300.1994
300.1981
300.1957
300.1926
300.189
300.1855
300.1823
300.1794
300.1771
300.1755
300.1746
300.0069
300.021
300.0345
300.047
300.0589
300.0706
300.0821
300.0939
300.106
300.1185
300.1313
300.1442
300.1568
300.1687
300.1794
300.1883
300.195
300.1994
300.2016
300.2017
300.2002
300.1975
300.1941
300.1904
300.1867
300.1832
300.1802
300.1778
300.1761
300.1752
300.0069
300.021
300.0345
300.047
300.059
300.0706
300.0822
300.094
300.1061
300.1186
300.1314
300.1443
300.1569
300.1689
300.1795
300.1884
300.1952
300.1996
300.2017
300.2018
300.2003
300.1977
300.1943
300.1905
300.1868
300.1833
300.1803
300.1779
300.1761
300.1752
300.0069
300.0209
300.0344
300.0468
300.0587
300.0702
300.0817
300.0934
300.1054
300.1177
300.1303
300.143
300.1554
300.1671
300.1775
300.1863
300.1929
300.1974
300.1996
300.1999
300.1985
300.1961
300.1929
300.1893
300.1858
300.1824
300.1795
300.1772
300.1755
300.1746
300.0068
300.0208
300.0341
300.0465
300.0582
300.0696
300.0809
300.0923
300.104
300.116
300.1282
300.1404
300.1523
300.1636
300.1736
300.1821
300.1886
300.1931
300.1955
300.196
300.195
300.193
300.1902
300.187
300.1838
300.1807
300.1781
300.1759
300.1743
300.1735
300.0067
300.0206
300.0337
300.0459
300.0574
300.0686
300.0796
300.0907
300.102
300.1135
300.1252
300.1368
300.1482
300.1588
300.1683
300.1764
300.1828
300.1872
300.1898
300.1907
300.1902
300.1886
300.1864
300.1837
300.1809
300.1783
300.176
300.174
300.1727
300.1719
300.0067
300.0203
300.0333
300.0452
300.0565
300.0674
300.0781
300.0888
300.0997
300.1106
300.1217
300.1326
300.1432
300.1532
300.1622
300.1698
300.1759
300.1804
300.1831
300.1844
300.1844
300.1835
300.1818
300.1798
300.1775
300.1754
300.1734
300.1718
300.1706
300.1699
300.0066
300.02
300.0327
300.0444
300.0554
300.066
300.0763
300.0867
300.097
300.1074
300.1178
300.128
300.1379
300.1472
300.1556
300.1628
300.1687
300.1731
300.1761
300.1777
300.1783
300.1779
300.1768
300.1754
300.1737
300.172
300.1704
300.1691
300.1681
300.1676
300.0065
300.0196
300.0321
300.0435
300.0542
300.0645
300.0745
300.0844
300.0942
300.1041
300.1138
300.1234
300.1326
300.1412
300.149
300.1558
300.1615
300.1659
300.169
300.171
300.172
300.1722
300.1717
300.1708
300.1696
300.1684
300.1672
300.1662
300.1655
300.165
300.0063
300.0192
300.0313
300.0425
300.0529
300.0628
300.0725
300.0821
300.0915
300.1008
300.11
300.1189
300.1275
300.1355
300.1428
300.1493
300.1547
300.159
300.1623
300.1646
300.166
300.1666
300.1666
300.1663
300.1656
300.1648
300.164
300.1633
300.1627
300.1624
300.0061
300.0187
300.0305
300.0413
300.0515
300.0612
300.0706
300.0798
300.0888
300.0977
300.1064
300.1148
300.1228
300.1303
300.1372
300.1433
300.1485
300.1528
300.1562
300.1587
300.1604
300.1615
300.1619
300.162
300.1617
300.1613
300.1608
300.1604
300.16
300.1598
300.0059
300.0181
300.0296
300.0401
300.0501
300.0595
300.0687
300.0776
300.0863
300.0948
300.1031
300.111
300.1186
300.1257
300.1322
300.138
300.1431
300.1474
300.1508
300.1535
300.1555
300.1569
300.1577
300.1581
300.1582
300.1581
300.1579
300.1577
300.1575
300.1574
300.0057
300.0174
300.0285
300.0388
300.0486
300.0579
300.0669
300.0756
300.0841
300.0923
300.1002
300.1078
300.115
300.1218
300.128
300.1336
300.1385
300.1428
300.1463
300.1491
300.1513
300.1529
300.154
300.1548
300.1552
300.1553
300.1554
300.1553
300.1553
300.1552
300.0054
300.0166
300.0273
300.0374
300.047
300.0563
300.0652
300.0738
300.0822
300.0902
300.0979
300.1052
300.1121
300.1186
300.1246
300.13
300.1349
300.1391
300.1426
300.1455
300.1479
300.1497
300.1511
300.152
300.1526
300.153
300.1532
300.1533
300.1534
300.1534
300.005
300.0156
300.026
300.0359
300.0456
300.0548
300.0637
300.0723
300.0806
300.0885
300.096
300.1032
300.1099
300.1162
300.1221
300.1274
300.1321
300.1363
300.1398
300.1428
300.1453
300.1473
300.1488
300.1499
300.1507
300.1512
300.1516
300.1518
300.1519
300.152
300.0044
300.0144
300.0246
300.0346
300.0443
300.0536
300.0626
300.0712
300.0795
300.0873
300.0947
300.1018
300.1084
300.1146
300.1203
300.1256
300.1302
300.1344
300.138
300.141
300.1436
300.1456
300.1472
300.1485
300.1494
300.15
300.1505
300.1507
300.1509
300.151
300.0037
300.0133
300.0235
300.0336
300.0435
300.0529
300.062
300.0706
300.0789
300.0867
300.0941
300.1011
300.1076
300.1138
300.1195
300.1246
300.1293
300.1335
300.1371
300.1401
300.1427
300.1448
300.1464
300.1477
300.1487
300.1494
300.1499
300.1502
300.1504
300.1505
300.0032
300.0127
300.0226
300.0341
300.0451
300.055
300.0641
300.0726
300.0805
300.088
300.0951
300.1018
300.1081
300.114
300.1194
300.1243
300.1288
300.1327
300.1362
300.1391
300.1415
300.1435
300.145
300.1463
300.1472
300.1478
300.1483
300.1486
300.1488
300.1489
300.0051
300.0149
300.0251
300.0357
300.046
300.0556
300.0646
300.0731
300.081
300.0886
300.0957
300.1025
300.1088
300.1148
300.1203
300.1253
300.1297
300.1337
300.1371
300.14
300.1424
300.1443
300.1458
300.147
300.1478
300.1485
300.1489
300.1491
300.1493
300.1494
300.006
300.0167
300.0272
300.0374
300.0473
300.0567
300.0656
300.074
300.082
300.0897
300.0969
300.1038
300.1104
300.1164
300.122
300.1271
300.1316
300.1356
300.139
300.1418
300.1441
300.146
300.1474
300.1484
300.1492
300.1497
300.15
300.1502
300.1503
300.1504
300.0066
300.018
300.0288
300.039
300.0487
300.058
300.0668
300.0753
300.0835
300.0913
300.0988
300.1059
300.1126
300.1189
300.1247
300.1299
300.1345
300.1385
300.1418
300.1446
300.1468
300.1485
300.1497
300.1506
300.1511
300.1515
300.1517
300.1518
300.1518
300.1518
300.007
300.019
300.03
300.0403
300.0501
300.0594
300.0684
300.077
300.0853
300.0934
300.1011
300.1086
300.1156
300.1222
300.1282
300.1336
300.1383
300.1423
300.1456
300.1483
300.1503
300.1517
300.1527
300.1534
300.1537
300.1538
300.1538
300.1538
300.1537
300.1536
300.0073
300.0197
300.0311
300.0416
300.0515
300.0609
300.07
300.0789
300.0875
300.0959
300.1041
300.1119
300.1193
300.1263
300.1326
300.1383
300.1431
300.1472
300.1504
300.1529
300.1546
300.1558
300.1565
300.1568
300.1568
300.1567
300.1564
300.1562
300.156
300.1558
300.0075
300.0203
300.032
300.0428
300.0529
300.0625
300.0719
300.081
300.09
300.0988
300.1075
300.1158
300.1238
300.1312
300.138
300.1439
300.1489
300.153
300.1561
300.1583
300.1598
300.1606
300.1609
300.1608
300.1604
300.1599
300.1594
300.1589
300.1585
300.1583
300.0077
300.0208
300.0328
300.0438
300.0542
300.0641
300.0738
300.0833
300.0928
300.1021
300.1113
300.1203
300.1289
300.1369
300.1441
300.1504
300.1556
300.1597
300.1626
300.1646
300.1656
300.166
300.1658
300.1652
300.1644
300.1635
300.1626
300.1619
300.1613
300.161
300.0079
300.0213
300.0335
300.0449
300.0555
300.0658
300.0758
300.0858
300.0957
300.1057
300.1156
300.1253
300.1346
300.1433
300.1511
300.1578
300.1632
300.1672
300.17
300.1715
300.1721
300.1719
300.1711
300.1699
300.1686
300.1672
300.166
300.1649
300.1642
300.1638
300.008
300.0217
300.0342
300.0458
300.0567
300.0673
300.0778
300.0882
300.0987
300.1093
300.12
300.1305
300.1407
300.1501
300.1586
300.1657
300.1713
300.1753
300.1778
300.1789
300.1789
300.178
300.1765
300.1748
300.1729
300.171
300.1694
300.168
300.167
300.1665
300.0081
300.022
300.0348
300.0466
300.0579
300.0688
300.0796
300.0905
300.1016
300.1129
300.1244
300.1358
300.1468
300.1571
300.1663
300.1739
300.1797
300.1836
300.1858
300.1863
300.1857
300.1841
300.1819
300.1795
300.177
300.1746
300.1726
300.1709
300.1697
300.169
300.0082
300.0223
300.0353
300.0474
300.0589
300.0701
300.0813
300.0927
300.1043
300.1163
300.1285
300.1408
300.1527
300.1639
300.1737
300.1817
300.1877
300.1916
300.1934
300.1934
300.1921
300.1898
300.1869
300.1838
300.1807
300.1779
300.1754
300.1734
300.172
300.1713
300.0083
300.0225
300.0357
300.048
300.0597
300.0712
300.0827
300.0944
300.1066
300.1192
300.1321
300.1451
300.1578
300.1697
300.1802
300.1887
300.1948
300.1986
300.2
300.1995
300.1976
300.1946
300.1911
300.1874
300.1838
300.1806
300.1777
300.1755
300.1739
300.1731
300.0084
300.0227
300.036
300.0484
300.0602
300.0719
300.0837
300.0957
300.1082
300.1212
300.1347
300.1483
300.1616
300.1741
300.185
300.1939
300.2002
300.2038
300.205
300.2041
300.2017
300.1982
300.1942
300.1901
300.1861
300.1825
300.1794
300.1769
300.1752
300.1743
300.0084
300.0227
300.0361
300.0486
300.0605
300.0723
300.0842
300.0964
300.1091
300.1224
300.1361
300.1501
300.1637
300.1765
300.1877
300.1967
300.2031
300.2067
300.2078
300.2066
300.2039
300.2002
300.1959
300.1915
300.1873
300.1835
300.1803
300.1777
300.1759
300.175
300.0084
300.0227
300.0361
300.0486
300.0605
300.0723
300.0842
300.0964
300.1091
300.1224
300.1362
300.1501
300.1638
300.1766
300.1878
300.1969
300.2032
300.2069
300.2079
300.2068
300.2041
300.2003
300.196
300.1916
300.1874
300.1836
300.1803
300.1778
300.176
300.1751
300.0083
300.0227
300.0359
300.0483
300.0602
300.0719
300.0837
300.0958
300.1083
300.1214
300.1349
300.1485
300.1619
300.1744
300.1854
300.1943
300.2006
300.2043
300.2055
300.2046
300.2021
300.1986
300.1946
300.1904
300.1863
300.1827
300.1796
300.1771
300.1754
300.1745
300.0083
300.0225
300.0356
300.0479
300.0596
300.0711
300.0827
300.0945
300.1067
300.1193
300.1323
300.1455
300.1583
300.1702
300.1808
300.1893
300.1955
300.1993
300.2008
300.2003
300.1983
300.1953
300.1917
300.1879
300.1843
300.181
300.1781
300.1758
300.1742
300.1734
300.0082
300.0222
300.0352
300.0473
300.0588
300.0701
300.0813
300.0927
300.1045
300.1165
300.1289
300.1413
300.1533
300.1645
300.1745
300.1826
300.1887
300.1926
300.1944
300.1944
300.193
300.1906
300.1877
300.1845
300.1814
300.1785
300.1759
300.1739
300.1725
300.1717
300.0081
300.0219
300.0347
300.0465