/*--------------------------------*- C++ -*----------------------------------*\
| =========                 |                                                 |
| \\      /  F ield         | OpenFOAM: The Open Source CFD Toolbox           |
|  \\    /   O peration     | Version:  2506                                  |
|   \\  /    A nd           | Website:  www.openfoam.com                      |
|    \\/     M anipulation  |                                                 |
\*---------------------------------------------------------------------------*/
FoamFile
{
    version     2.0;
    format      ascii;
    arch        "LSB;label=32;scalar=64";
    class       volScalarField;
    location    "300/airRegion";
    object      epsilon;
}
// * * * * * * * * * * * * * * * * * * * * * * * * * * * * * * * * * * * * * //

dimensions      [0 2 -3 0 0 0 0];

internalField   nonuniform List<scalar> 
85779
(
0.008338135
0.007761996
0.007623332
0.007579828
0.007561411
0.007537956
0.007424783
0.006830258
0.004088967
0.00198207
0.001249315
0.0008893396
0.0006863336
0.0005696668
0.0005067251
0.0004785454
0.0004796455
0.0005254422
0.0006396429
0.0008751051
0.001358831
0.002440632
0.005278069
0.007232561
0.007534872
0.007614362
0.00768328
0.007871352
0.008979533
0.02346798
0.007929047
0.006987588
0.006692474
0.006578217
0.006515465
0.006431687
0.006133934
0.004473761
0.002670724
0.001672924
0.001148167
0.0008470545
0.0006667927
0.0005608354
0.0005034895
0.0004777885
0.0004777031
0.0005153392
0.0006124509
0.0008115734
0.00119652
0.00193695
0.003377256
0.005963186
0.006444053
0.006603503
0.006729583
0.006980292
0.008070889
0.0194516
0.007936444
0.006912868
0.006554988
0.006400508
0.006303959
0.006160658
0.005663356
0.003318675
0.00212047
0.001449413
0.001050492
0.000802119
0.0006455328
0.0005499193
0.0004959696
0.0004695534
0.0004652923
0.0004938044
0.0005766124
0.0007495537
0.001079078
0.001698754
0.002929572
0.005689038
0.006222649
0.006422657
0.006584032
0.006864351
0.007958651
0.02009535
0.00798688
0.006956563
0.006579089
0.006405105
0.006280788
0.006051197
0.005092602
0.002903028
0.001887277
0.001326703
0.0009865137
0.0007691986
0.0006287056
0.0005404943
0.0004885081
0.0004603675
0.0004511447
0.0004705243
0.0005414876
0.000698442
0.001004654
0.001592631
0.002804512
0.005645652
0.00621102
0.006440458
0.006626663
0.006920647
0.007999191
0.02063381
0.008026143
0.007003252
0.006620816
0.006436992
0.006291685
0.005980195
0.00432825
0.002661079
0.001762356
0.001255697
0.0009458588
0.0007463022
0.0006157808
0.0005322168
0.0004809792
0.0004505434
0.0004360673
0.0004465112
0.0005072223
0.0006538269
0.000950134
0.001531218
0.002751738
0.005645268
0.006239277
0.006493591
0.006698118
0.006997739
0.008055782
0.02101653
0.008051242
0.00703553
0.006651897
0.006461989
0.006301001
0.005941584
0.00413839
0.002526984
0.00167908
0.001205364
0.000915717
0.0007283184
0.000604676
0.0005241692
0.0004729718
0.0004399755
0.0004201597
0.0004218561
0.0004731529
0.0006119373
0.0009026722
0.001481675
0.002710776
0.005643059
0.006264475
0.006540822
0.006760055
0.007064158
0.008123246
0.02128913
0.008066161
0.00705518
0.006670919
0.006475937
0.006297685
0.005867056
0.003684393
0.002330928
0.001586851
0.001156747
0.00088828
0.0007119924
0.0005940976
0.0005159148
0.0004644391
0.0004288077
0.0004036479
0.0003967467
0.0004391458
0.0005712996
0.0008574953
0.001434016
0.002667716
0.005630082
0.006277769
0.006574127
0.006805824
0.00711347
0.008173237
0.02147573
0.008074546
0.007066153
0.006681038
0.006481397
0.006286444
0.005788515
0.003322963
0.002143752
0.001500058
0.001113027
0.000864022
0.0006972638
0.0005840536
0.0005076398
0.000455707
0.0004174255
0.0003869016
0.0003715153
0.0004055571
0.0005319347
0.000813729
0.001386419
0.002620931
0.005606555
0.006279323
0.006594174
0.006836909
0.007147816
0.008207627
0.02160167
0.008078922
0.007071594
0.006685236
0.006481599
0.006276587
0.005749671
0.00322413
0.002071878
0.001455728
0.001085482
0.0008462633
0.000685189
0.0005750585
0.0004998016
0.0004472669
0.0004063186
0.0003703635
0.0003466143
0.0003730338
0.0004945157
0.0007719576
0.001339637
0.002571837
0.005574574
0.006271531
0.006603629
0.00685638
0.007170591
0.008230511
0.02168495
0.008081046
0.007073941
0.006686193
0.006478921
0.006265945
0.005720871
0.003185442
0.002038241
0.00143039
0.001067098
0.0008329666
0.000675334
0.0005672491
0.0004927509
0.0004395406
0.0003959316
0.0003545366
0.0003227314
0.0003424595
0.0004598781
0.0007330314
0.001294894
0.002522249
0.005532327
0.006256816
0.006605361
0.00686727
0.007184848
0.00824515
0.02173818
0.008082088
0.007074911
0.006685863
0.006474977
0.006253148
0.005687959
0.003150271
0.002009833
0.001409404
0.001051928
0.0008219293
0.0006670518
0.000560589
0.000486654
0.0004327627
0.000386645
0.0003401669
0.0003010932
0.0003150475
0.000428782
0.0006972851
0.001252079
0.002470939
0.005474932
0.006236834
0.006601938
0.006872226
0.007193099
0.008254014
0.02177052
0.008082756
0.007075589
0.00668554
0.006470457
0.006233359
0.005621221
0.003093651
0.001974131
0.00138726
0.001037701
0.0008123049
0.0006600985
0.0005550587
0.0004815602
0.0004270819
0.0003789728
0.0003285049
0.0002836237
0.0002923633
0.0004018263
0.000663867
0.001206593
0.002401401
0.005367019
0.006206935
0.006594758
0.00687335
0.007197335
0.008258977
0.02178878
0.00808321
0.007076103
0.006685221
0.006464144
0.006193851
0.005401827
0.002993901
0.001932218
0.001366515
0.00102575
0.0008046252
0.0006546609
0.0005507179
0.0004775292
0.0004227227
0.0003736017
0.0003210275
0.0002724434
0.0002761095
0.0003795743
0.0006304584
0.001143586
0.002232208
0.00478561
0.00612692
0.006581695
0.006872016
0.007199074
0.008261448
0.02179799
0.008083531
0.007076489
0.006684997
0.006459731
0.006145949
0.004686352
0.002879324
0.001898649
0.0013513
0.001017291
0.0007993218
0.0006508997
0.0005476197
0.0004746007
0.0004198187
0.0003709205
0.0003186044
0.0002689942
0.0002678374
0.0003634855
0.00059897
0.00107092
0.002034137
0.004027396
0.006042999
0.00656739
0.006869708
0.007199461
0.008262451
0.02180179
0.008083728
0.00707678
0.006685085
0.006458169
0.006137463
0.004652914
0.002852827
0.001884004
0.001343756
0.001013202
0.000796789
0.0006489828
0.0005458285
0.0004727542
0.0004182044
0.0003705868
0.0003208723
0.0002732878
0.0002684506
0.0003567625
0.000581897
0.001036228
0.001987245
0.004351372
0.006032432
0.006561052
0.006867977
0.00719921
0.008262604
0.02180251
0.008083757
0.007076892
0.006685503
0.006459755
0.006166273
0.005284133
0.002913714
0.001891857
0.001346121
0.00101446
0.0007974095
0.0006490976
0.0005454983
0.0004721039
0.0004177694
0.0003718675
0.0003260908
0.0002830854
0.0002770027
0.0003595662
0.0005783774
0.001024385
0.001942381
0.003896779
0.006009656
0.006558043
0.006866993
0.00719871
0.008262276
0.02180154
0.008083584
0.00707668
0.006685728
0.006461361
0.006162893
0.005125966
0.002917409
0.001908751
0.001357173
0.001020793
0.0008010505
0.0006512369
0.0005467642
0.0004729286
0.0004188303
0.0003746382
0.0003327981
0.0002951301
0.0002905288
0.0003703844
0.0005869905
0.00103535
0.001980924
0.004341024
0.006029395
0.00655955
0.006866688
0.007197955
0.008261468
0.02179884
0.0080833
0.007076341
0.00668599
0.006465518
0.006184198
0.005212513
0.002979627
0.001942278
0.001375116
0.001030917
0.0008071639
0.0006552275
0.0005496589
0.0004754279
0.0004217123
0.0003791574
0.0003407571
0.0003081011
0.000306956
0.0003875622
0.0006070387
0.001065432
0.002016484
0.004026389
0.006036623
0.006563574
0.006866675
0.007196586
0.008259833
0.0217931
0.008082935
0.007075966
0.006686505
0.006473492
0.006241127
0.005629997
0.003117994
0.001992683
0.001398338
0.001043753
0.0008152192
0.0006608476
0.0005541076
0.0004796011
0.0004264695
0.0003855472
0.0003501423
0.0003219638
0.0003255649
0.0004104031
0.0006403118
0.00113498
0.002236788
0.005108506
0.006137884
0.006575967
0.006866621
0.007193919
0.008256717
0.02178196
0.008082492
0.007075711
0.006687326
0.006478073
0.006260275
0.005703703
0.003167468
0.002022631
0.001417662
0.001056852
0.0008244974
0.0006678447
0.0005599693
0.0004853071
0.0004329447
0.0003937203
0.0003610964
0.000337101
0.0003462846
0.0004374897
0.0006801372
0.001208254
0.002391722
0.005366884
0.006197456
0.006586275
0.00686477
0.007188908
0.008251186
0.02176205
0.008081604
0.007075022
0.006687974
0.006482008
0.006271882
0.005733343
0.003196529
0.00204697
0.001436598
0.001071127
0.0008352394
0.0006762229
0.0005671179
0.0004923231
0.0004408586
0.000403449
0.0003736275
0.0003538632
0.0003692345
0.0004674848
0.0007200532
0.001265175
0.002474373
0.005454762
0.006225554
0.006590445
0.00685926
0.00718015
0.008241952
0.02172868
0.008079521
0.007072746
0.00668709
0.006484642
0.006282023
0.005760692
0.003233281
0.002080321
0.001462252
0.001089815
0.0008487637
0.0006863711
0.0005754927
0.0005003661
0.0004498308
0.0004143789
0.0003875674
0.0003723938
0.0003945642
0.0005003492
0.0007611869
0.001315954
0.002534238
0.005511348
0.00624292
0.006588981
0.006848197
0.007165715
0.008227182
0.02167519
0.008075074
0.007067166
0.006682677
0.006484186
0.006291557
0.005797749
0.003322542
0.002152615
0.001509211
0.001119211
0.0008674936
0.0006990037
0.0005850687
0.0005090909
0.0004593886
0.0004260382
0.0004025766
0.0003925996
0.0004222482
0.0005361168
0.0008047254
0.001366684
0.002589451
0.005560161
0.006253941
0.00658048
0.006829089
0.007143105
0.008204402
0.02159244
0.008066543
0.00705591
0.006672132
0.006478263
0.006301788
0.005868064
0.003617094
0.002327497
0.001598364
0.001165611
0.000893143
0.0007143904
0.0005956144
0.0005180562
0.0004689952
0.0004378779
0.0004181827
0.0004141703
0.0004520035
0.0005744791
0.0008506673
0.001418438
0.00264201
0.005593379
0.006255978
0.006562077
0.006798844
0.007109217
0.008170315
0.02146767
0.008051468
0.007035966
0.006652645
0.006463742
0.006306205
0.005975437
0.004687037
0.002602958
0.001703443
0.001216794
0.0009212095
0.0007309303
0.0006064238
0.0005267506
0.0004781362
0.0004493609
0.0004338612
0.0004366489
0.0004833608
0.0006149461
0.0008985817
0.001470829
0.002691419
0.005613877
0.006246775
0.006530947
0.006754267
0.007060585
0.008120802
0.02128268
0.008026249
0.007003474
0.00662122
0.006437951
0.006294798
0.005994812
0.004407359
0.002693584
0.001778056
0.001263927
0.0009499626
0.0007483227
0.0006173756
0.0005349688
0.000486497
0.0004600843
0.0004491431
0.0004595545
0.0005158987
0.0006574401
0.0009491482
0.001525326
0.002738926
0.005623737
0.006226046
0.006486205
0.006693742
0.006995019
0.008054343
0.02101208
0.007986885
0.006956607
0.006579206
0.006405513
0.006284359
0.006086281
0.005420943
0.002973449
0.001903773
0.001332489
0.0009888891
0.0007702478
0.0006298548
0.0005431727
0.0004941411
0.0004698873
0.0004636981
0.0004824976
0.0005495575
0.0007032513
0.001006847
0.001591455
0.002797917
0.005631507
0.006202219
0.006435594
0.006623734
0.006918772
0.007998333
0.02063108
0.00793639
0.006912804
0.00655494
0.006400559
0.006304677
0.006166586
0.005698809
0.003332183
0.00212192
0.001449865
0.001050361
0.0008018073
0.0006459742
0.0005523128
0.000501504
0.0004788581
0.0004773149
0.0005051464
0.0005847258
0.0007559176
0.001084258
0.001701586
0.002928044
0.005681199
0.006217753
0.006420027
0.006582389
0.00686321
0.007958101
0.02009398
0.007928984
0.006987493
0.006692359
0.006578132
0.006515637
0.006432999
0.006138371
0.004472599
0.002616196
0.001658266
0.001143561
0.0008449081
0.0006663422
0.0005628099
0.0005087568
0.0004866797
0.0004890866
0.000526207
0.0006209089
0.000819641
0.00120454
0.001942987
0.003378046
0.005959971
0.006442142
0.006602544
0.006728892
0.006979707
0.008070583
0.01945106
0.008338098
0.007761928
0.007623224
0.007579681
0.007561323
0.007538199
0.007424488
0.006805447
0.003239309
0.001873357
0.001231467
0.000884589
0.0006849921
0.0005711344
0.0005115607
0.0004869861
0.000490618
0.0005360158
0.0006484245
0.0008847125
0.001369897
0.002450261
0.005275597
0.007232615
0.007535302
0.007614607
0.007683269
0.0078712
0.008979445
0.02346793
0.007929044
0.006987586
0.006692479
0.006578227
0.006515459
0.006431889
0.006135548
0.004473831
0.002670666
0.001673016
0.001148305
0.0008471797
0.0006669079
0.0005609666
0.0005036832
0.0004781318
0.0004782881
0.0005161711
0.0006133912
0.0008124304
0.001197109
0.001937061
0.003376758
0.005962155
0.006443951
0.006603826
0.006730055
0.006980763
0.008071261
0.01945249
0.007247238
0.005588532
0.004912558
0.004598824
0.00440801
0.004209675
0.003854335
0.003049709
0.00211265
0.001468125
0.001063401
0.0008082831
0.0006483142
0.0005524353
0.0005004204
0.0004770836
0.0004759407
0.0005058162
0.0005864252
0.0007534924
0.001066196
0.001614303
0.002505368
0.003684032
0.004224428
0.004492312
0.004686537
0.004941163
0.005580008
0.008428349
0.007200572
0.005340027
0.004487328
0.004051973
0.003773361
0.00350229
0.00310851
0.002385123
0.001752006
0.001293115
0.0009787085
0.0007671644
0.0006282746
0.0005418916
0.0004928854
0.0004685932
0.0004632064
0.0004840529
0.0005500842
0.0006910178
0.0009513041
0.001391825
0.002082161
0.003006201
0.003526547
0.003826853
0.004053865
0.004322878
0.004907105
0.007441082
0.007249444
0.00535408
0.00443586
0.003938663
0.003601516
0.003263629
0.002785155
0.002108949
0.001572417
0.001188662
0.0009210677
0.0007366022
0.0006124127
0.0005328621
0.0004854941
0.0004592652
0.0004488698
0.0004606508
0.0005141947
0.0006373143
0.0008701234
0.001269025
0.001908298
0.002805632
0.003346432
0.003682478
0.003949869
0.004265454
0.004941066
0.00804446
0.007294722
0.005405165
0.00446638
0.003939916
0.003565465
0.003177144
0.002615606
0.001972539
0.001477744
0.00112809
0.0008844338
0.0007154543
0.0006003372
0.0005249764
0.0004780344
0.0004492822
0.0004335696
0.0004364803
0.0004792207
0.0005903904
0.0008098583
0.001195511
0.001830249
0.002750735
0.003331329
0.003706824
0.004011435
0.004364338
0.005108435
0.008687178
0.007324516
0.005445364
0.004500499
0.003959079
0.003560102
0.003137441
0.002528674
0.001891574
0.001417655
0.001087542
0.0008584984
0.000699381
0.000590141
0.0005173112
0.000470052
0.0004384861
0.000417328
0.0004115319
0.0004445439
0.0005470722
0.0007594304
0.001141138
0.001782055
0.002732032
0.003354634
0.003766654
0.00410061
0.00447683
0.005259997
0.009159779
0.007342045
0.005470257
0.004522868
0.003971607
0.003552697
0.003097971
0.002421135
0.001809883
0.001363748
0.001053059
0.0008366462
0.0006853911
0.0005805658
0.0005094301
0.000461516
0.0004270428
0.000400362
0.0003859305
0.0004099612
0.0005057548
0.0007134036
0.001092999
0.001739545
0.002713031
0.003374049
0.003818179
0.004175207
0.004566043
0.005370057
0.009484474
0.007351586
0.005483758
0.004534292
0.003975261
0.003539602
0.003058028
0.002322217
0.001735347
0.001316581
0.001023569
0.0008178222
0.000672869
0.0005714429
0.0005015007
0.0004528028
0.0004153952
0.0003830444
0.0003599444
0.0003757353
0.0004661949
0.0006700582
0.001046979
0.001695614
0.002683187
0.003378837
0.003851475
0.004227676
0.004628923
0.005444687
0.009702142
0.007356296
0.005490022
0.004538368
0.003973238
0.003526418
0.00303192
0.002278433
0.001695848
0.00128699
0.001002552
0.0008030192
0.0006621727
0.000563105
0.0004939764
0.0004444639
0.0004040801
0.0003657877
0.0003339498
0.0003424405
0.0004288403
0.0006293726
0.001002627
0.001649627
0.002640807
0.003369296
0.003867715
0.00426062
0.004670321
0.005493395
0.009844977
0.00735828
0.005492144
0.004538146
0.00396764
0.003511572
0.003010149
0.002252061
0.001670989
0.001266603
0.0009868449
0.0007911732
0.0006531176
0.0005557622
0.0004872398
0.0004369358
0.0003935161
0.0003490192
0.0003086079
0.0003109637
0.0003943775
0.0005918062
0.0009607212
0.001604153
0.002595483
0.003349832
0.003871059
0.004278741
0.004695814
0.005523878
0.009935662
0.007358886
0.005492199
0.004535716
0.00395966
0.003493428
0.002984762
0.002225964
0.001648577
0.001249014
0.0009735403
0.0007811675
0.0006454231
0.0005494708
0.0004814222
0.0004303417
0.000383966
0.0003334834
0.0002853417
0.0002826714
0.0003635529
0.0005576323
0.000921481
0.001560311
0.002553738
0.003324473
0.003865729
0.004286528
0.004710157
0.005541856
0.009990379
0.007358924
0.005491472
0.004532436
0.003949961
0.003470242
0.002945903
0.002191756
0.001623766
0.00123185
0.0009616088
0.0007726324
0.0006390031
0.0005442149
0.0004764764
0.0004246814
0.0003759197
0.0003207515
0.000266588
0.0002594161
0.0003371434
0.000526624
0.0008829549
0.001511643
0.002498254
0.003291777
0.003854469
0.004287602
0.004717102
0.005551551
0.0100209
0.007358781
0.005490633
0.004529353
0.003940322
0.003443249
0.00288434
0.002151216
0.00160001
0.00121722
0.000952017
0.0007659538
0.0006339879
0.0005400196
0.0004724488
0.0004202371
0.0003703167
0.0003128158
0.0002549993
0.0002431893
0.000316101
0.000498367
0.000840691
0.001439489
0.0023719
0.003239273
0.003837591
0.004284586
0.00471951
0.005556082
0.01003592
0.007358662
0.005490048
0.004527307
0.003934267
0.003426109
0.002824428
0.002120588
0.001582906
0.00120691
0.000945424
0.0007614092
0.0006304892
0.000536928
0.000469409
0.0004172423
0.0003677397
0.0003108272
0.0002523195
0.0002357536
0.0003019956
0.0004745606
0.000797582
0.001356228
0.002230655
0.00318105
0.00381876
0.004279852
0.004719533
0.005557682
0.01004176
0.007358647
0.005489852
0.004526409
0.003931205
0.003417945
0.002808504
0.002107299
0.001574533
0.001201981
0.000942381
0.0007592588
0.0006286303
0.0005349911
0.0004672961
0.0004154111
0.0003676666
0.0003142957
0.0002585587
0.0002379863
0.0002969966
0.0004614503
0.0007734446
0.001316454
0.002190513
0.003152267
0.003807443
0.004276146
0.004718628
0.005557693
0.0100426
0.007358756
0.005490094
0.004526871
0.003931861
0.003419731
0.002836244
0.002113902
0.001577249
0.001203684
0.0009434241
0.0007597397
0.0006285847
0.0005344009
0.0004662355
0.0004144865
0.000368898
0.0003206877
0.0002707958
0.0002487326
0.0003013619
0.0004595594
0.0007661664
0.001302262
0.002159959
0.003142222
0.00380312
0.004274172
0.004717564
0.005556914
0.01004092
0.007358979
0.00549077
0.004528805
0.003937033
0.003429262
0.002841848
0.002129458
0.001589795
0.001211735
0.0009483609
0.000762763
0.0006304066
0.0005353975
0.0004666948
0.0004150795
0.000371455
0.0003280647
0.0002846747
0.0002642935
0.0003134663
0.0004680734
0.0007738426
0.001312477
0.002183681
0.003147294
0.00380451
0.004273772
0.004716337
0.005555352
0.01003658
0.007359295
0.005491794
0.004531808
0.003945508
0.003450462
0.002881351
0.002161386
0.001610414
0.00122449
0.0009563776
0.0007679975
0.0006340152
0.0005380887
0.0004690098
0.0004177551
0.0003759024
0.0003364007
0.0002986928
0.0002820343
0.0003310606
0.0004858583
0.0007961902
0.001344095
0.002213162
0.003168409
0.003811605
0.004274336
0.004714276
0.005552273
0.01002733
0.007359623
0.005493018
0.004535593
0.003956888
0.003484407
0.002965667
0.002210873
0.00163762
0.001240642
0.0009667183
0.0007750727
0.0006392426
0.000542403
0.0004731666
0.0004225623
0.0003824341
0.0003460975
0.0003130778
0.0003011862
0.0003530385
0.0005126459
0.0008370976
0.001421145
0.002365222
0.003220928
0.003825404
0.004274797
0.004710078
0.005546269
0.01000903
0.007359765
0.005494051
0.004539072
0.00396593
0.003505015
0.002999437
0.002239824
0.001659278
0.001256383
0.0009781504
0.0007835507
0.0006458839
0.0005481717
0.0004789551
0.0004292477
0.0003909037
0.0003573778
0.0003284502
0.0003219033
0.000378595
0.0005454616
0.000885861
0.001501607
0.002478917
0.003273221
0.00383917
0.004272508
0.004701745
0.005535309
0.00997577
0.007359265
0.005494163
0.004541546
0.003973313
0.003520986
0.003020701
0.002262006
0.001679249
0.001272751
0.0009909439
0.0007934634
0.0006538499
0.0005552034
0.0004860821
0.0004374491
0.0004010192
0.0003702654
0.0003453021
0.0003445596
0.0004071583
0.0005810045
0.0009315313
0.00156007
0.002540398
0.003306114
0.003845489
0.004263969
0.00468654
0.005516538
0.00991936
0.007357285
0.005492029
0.004541668
0.003978515
0.003534426
0.003041115
0.002287455
0.0017039
0.001293238
0.001006796
0.0008054917
0.0006632694
0.0005633232
0.0004941965
0.0004467275
0.0004123808
0.0003845891
0.0003638513
0.0003694433
0.0004387256
0.0006192683
0.0009764677
0.001609277
0.002583075
0.003327131
0.00384257
0.004245685
0.004660784
0.005485814
0.009828225
0.007352478
0.005485573
0.004537302
0.003980185
0.003547332
0.00306737
0.002331301
0.001745098
0.00132456
0.001028919
0.0008209195
0.0006744523
0.0005723603
0.0005028868
0.0004565641
0.0004244806
0.0003999949
0.0003840384
0.00039662
0.0004733339
0.0006606921
0.001023196
0.001656932
0.002619745
0.003338339
0.003827607
0.004213398
0.004619746
0.005437406
0.009686213
0.007342764
0.005471741
0.004525417
0.003976057
0.003560167
0.003107205
0.002424235
0.001820939
0.001374418
0.001060172
0.0008406413
0.00068749
0.000582037
0.0005116799
0.0004663852
0.0004367314
0.0004159813
0.0004055595
0.0004258879
0.0005108147
0.0007053376
0.001072595
0.001705648
0.002657386
0.003338074
0.003796868
0.004162384
0.004557765
0.005363525
0.009470442
0.00732503
0.005446455
0.004502471
0.003962802
0.003567249
0.003150988
0.002568104
0.001913927
0.001431544
0.001095672
0.0008628609
0.0007016886
0.0005919165
0.0005201153
0.0004756555
0.0004485546
0.0004319819
0.0004279473
0.0004568629
0.0005509385
0.0007533011
0.001125032
0.001754757
0.00268806
0.00332488
0.003748833
0.004089819
0.004469835
0.005254537
0.009148351
0.007295037
0.005405874
0.004467734
0.003942558
0.003570642
0.003186708
0.00263593
0.00198812
0.001488325
0.001134588
0.000888025
0.0007174426
0.0006021018
0.0005280431
0.0004840517
0.0004595139
0.0004474878
0.0004507083
0.0004892111
0.0005939545
0.0008061553
0.001184135
0.001810045
0.002718151
0.003308257
0.003692869
0.004002927
0.004358801
0.005104244
0.008678653
0.007249584
0.005354453
0.004436672
0.003940407
0.003605547
0.003275078
0.002828304
0.002127556
0.001581198
0.001193395
0.0009235137
0.0007379362
0.0006138916
0.0005359301
0.0004916469
0.000469446
0.0004621587
0.0004734615
0.0005229341
0.0006413495
0.0008691122
0.001262283
0.001894701
0.002782652
0.003329565
0.003672201
0.003943534
0.00426127
0.004937938
0.008038603
0.007200587
0.005340162
0.004487741
0.004052973
0.003775573
0.003507364
0.003119323
0.002393573
0.001756318
0.001295324
0.0009795828
0.000767521
0.0006292147
0.0005447356
0.0004989334
0.0004785012
0.0004758462
0.0004959355
0.0005583655
0.0006961278
0.0009531062
0.001389285
0.002074001
0.002990375
0.003514802
0.003819709
0.004049387
0.004319816
0.004904765
0.007437309
0.007247192
0.005588525
0.004912688
0.004599278
0.004409214
0.004212403
0.003860238
0.003073051
0.002111488
0.001466599
0.001062169
0.0008073914
0.0006485468
0.0005549107
0.0005061772
0.0004864941
0.0004877954
0.0005169527
0.0005946617
0.0007600742
0.001071065
0.001615898
0.002501645
0.003672689
0.004216975
0.004488024
0.004683817
0.004939209
0.005578483
0.008426005
0.007928984
0.006987494
0.006692356
0.006578116
0.006515639
0.006433513
0.006156314
0.004955571
0.002654416
0.001661801
0.001143989
0.0008450562
0.0006664804
0.0005629783
0.0005089809
0.0004869981
0.0004895515
0.0005268474
0.000621647
0.0008203915
0.001205235
0.001943487
0.003378208
0.005959626
0.006442364
0.006602985
0.006729383
0.006980156
0.008070922
0.01945193
0.007936435
0.00691286
0.006554988
0.006400481
0.006304013
0.006164198
0.005692781
0.003326149
0.002121717
0.001449898
0.001050879
0.0008024124
0.0006457706
0.0005501681
0.0004963186
0.0004701832
0.0004664533
0.0004956521
0.0005788667
0.0007516372
0.001080486
0.001699256
0.002929218
0.005688301
0.006223298
0.006423922
0.006585422
0.006865603
0.007959576
0.02009723
0.007200568
0.005340026
0.00448734
0.00405199
0.003773338
0.003502804
0.003112535
0.002386348
0.001752338
0.001293389
0.0009789404
0.0007673243
0.0006283896
0.000541999
0.0004930199
0.0004688385
0.0004637309
0.0004850647
0.0005514516
0.0006922829
0.0009520933
0.001392073
0.002082054
0.00300609
0.003527392
0.00382824
0.0040554
0.004324383
0.004908624
0.007443663
0.007133776
0.005019203
0.00392308
0.003315004
0.00292581
0.002608492
0.002280207
0.001866989
0.001470924
0.001148247
0.000905374
0.0007305747
0.000610068
0.0005319006
0.0004851457
0.0004595111
0.0004500378
0.0004625937
0.0005141301
0.0006273524
0.0008299459
0.001147864
0.001588527
0.002094649
0.002493154
0.002768736
0.002974487
0.003164815
0.003431037
0.004240119
0.007177811
0.005013324
0.003822324
0.003126862
0.002671639
0.002317133
0.001986702
0.001638579
0.001320364
0.001057967
0.0008545386
0.0007033921
0.000595852
0.000523489
0.0004776835
0.0004496989
0.0004351727
0.0004389255
0.0004775441
0.0005707925
0.0007394025
0.0009995809
0.001352916
0.001760823
0.002117169
0.002386187
0.002596504
0.002788129
0.003041386
0.003795059
0.007222084
0.005060602
0.003838283
0.003103212
0.002610067
0.002226217
0.001876833
0.00153973
0.001245805
0.001007693
0.0008232877
0.0006851264
0.0005852541
0.0005161925
0.0004702193
0.0004393708
0.0004195058
0.0004146109
0.0004420863
0.0005217735
0.0006726539
0.0009100958
0.001239953
0.001635795
0.002001646
0.002293056
0.002533506
0.002765449
0.00309329
0.004082998
0.00725148
0.005100285
0.003868314
0.003115281
0.002600488
0.002196851
0.001830401
0.001491401
0.001205231
0.0009776924
0.0008028806
0.0006718867
0.000576402
0.0005090065
0.0004621997
0.0004282498
0.0004028749
0.000389392
0.0004069971
0.0004773432
0.0006193058
0.0008493109
0.001177957
0.001586198
0.001980303
0.002304593
0.002579254
0.002849674
0.00324129
0.004451675
0.007268596
0.005124867
0.003889287
0.003126681
0.002597989
0.002180447
0.001797781
0.001457006
0.00117611
0.0009555877
0.0007870553
0.0006607216
0.0005680272
0.0005015062
0.0004536345
0.0004165292
0.0003854424
0.0003632544
0.0003719454
0.0004356716
0.0005729706
0.0008009699
0.001133973
0.001558073
0.001982593
0.002338801
0.002642461
0.002940073
0.00337167
0.004742631
0.007277676
0.005137894
0.003900058
0.003131141
0.002592322
0.002165362
0.001769862
0.001428569
0.001152424
0.0009374183
0.0007735462
0.0006505759
0.000559866
0.000493919
0.0004450287
0.0004047538
0.0003675536
0.0003363391
0.0003370861
0.0003962256
0.000530868
0.0007580698
0.001094849
0.001530902
0.001982389
0.002366278
0.002693143
0.003009414
0.003465017
0.004945991
0.007281927
0.005143637
0.00390381
0.003130286
0.002584458
0.002152379
0.001751119
0.001408762
0.001134751
0.0009229217
0.0007620617
0.0006414337
0.0005522184
0.0004868021
0.0004370949
0.0003935565
0.0003495329
0.0003088746
0.0003029302
0.000359236
0.0004922181
0.0007184492
0.001057351
0.001502468
0.001973477
0.002380489
0.002726188
0.003056056
0.003526643
0.005080906
0.007283468
0.005145251
0.003903494
0.003126281
0.00257574
0.002140151
0.001736152
0.001393289
0.00112062
0.0009109203
0.0007522101
0.0006333688
0.0005454248
0.0004806218
0.0004303248
0.0003832983
0.0003316089
0.0002814514
0.0002704142
0.0003252674
0.0004569594
0.0006816204
0.00102092
0.001471857
0.001956733
0.002382927
0.002744232
0.003084652
0.003565063
0.005166517
0.007283634
0.005144807
0.003901145
0.003120575
0.00256629
0.002126995
0.001721387
0.001379034
0.001108112
0.0009004958
0.0007437038
0.0006264179
0.0005396075
0.0004753874
0.0004245438
0.0003738924
0.0003144189
0.0002558124
0.0002411535
0.0002950626
0.0004252012
0.0006475359
0.0009858616
0.001440477
0.001934817
0.002377015
0.002751429
0.003100347
0.003587415
0.005217713
0.007283243
0.00514358
0.003898089
0.003114155
0.002555761
0.002111522
0.001705336
0.001364984
0.001096706
0.0008914673
0.0007365364
0.0006205992
0.0005346598
0.000470742
0.0004192317
0.0003655602
0.0003001101
0.0002352726
0.0002173663
0.0002694956
0.0003970668
0.0006158229
0.0009510718
0.001406517
0.001909095
0.00236573
0.002751544
0.003107456
0.00359911
0.005245638
0.007282739
0.005142321
0.003895325
0.003108467
0.002546059
0.002095607
0.001690484
0.001353077
0.001087536
0.0008844056
0.0007309616
0.0006159756
0.0005305288
0.0004666712
0.0004147369
0.0003597265
0.0002915897
0.0002232012
0.0002012539
0.0002496655
0.0003729945
0.000586014
0.0009138561
0.001363976
0.001878433
0.00235099
0.002747556
0.003109349
0.003604168
0.005258642
0.007282369
0.005141436
0.003893441
0.00310467
0.00253949
0.002084222
0.001680088
0.00134483
0.001081307
0.0008796715
0.000727163
0.0006126251
0.0005272548
0.0004633189
0.0004115402
0.000357378
0.0002904326
0.0002216547
0.0001947233
0.0002371792
0.0003545552
0.0005600232
0.0008771721
0.001318852
0.001846712
0.002335641
0.002742059
0.003108602
0.003605529
0.005262981
0.007282241
0.005141104
0.003892657
0.003102927
0.002536344
0.002079148
0.001675158
0.001341018
0.001078543
0.0008775631
0.0007253056
0.0006106535
0.0005248791
0.0004605306
0.000409079
0.0003576347
0.0002959581
0.0002306953
0.0001987604
0.0002337721
0.0003447631
0.0005445834
0.0008557886
0.001294355
0.001827552
0.002325487
0.002737687
0.00310706
0.00360513
0.005263033
0.007282396
0.0051414
0.003893124
0.003103618
0.002537409
0.002081438
0.001676914
0.001342522
0.001079712
0.0008783066
0.0007255556
0.0006102842
0.0005236933
0.000458436
0.0004067137
0.0003582507
0.0003041669
0.0002464872
0.0002119728
0.0002397274
0.0003445634
0.0005404893
0.000848948
0.001285769
0.001820698
0.00232139
0.002735432
0.003105706
0.003604092
0.005261472
0.007282826
0.005142316
0.003894871
0.003106953
0.002542771
0.002088807
0.001684898
0.001349163
0.001084624
0.0008817698
0.0007278996
0.0006116915
0.0005241727
0.0004579736
0.0004058893
0.0003597531
0.0003122424
0.0002628644
0.0002298687
0.0002532498
0.0003534896
0.0005471762
0.0008551375
0.001291758
0.001824256
0.002322803
0.002735219
0.003104534
0.003602394
0.005258074
0.007283476
0.005143731
0.00389762
0.003112254
0.00255147
0.002102109
0.001697928
0.001359682
0.001092508
0.0008875642
0.0007321776
0.0006148863
0.0005265641
0.000459809
0.0004078027
0.0003635629
0.0003207943
0.0002781365
0.0002490132
0.0002714037
0.0003698581
0.0005639142
0.0008742126
0.001311531
0.001838602
0.002329321
0.002736333
0.003102711
0.003599012
0.005250392
0.007284215
0.005145427
0.003901035
0.003118973
0.002562785
0.00212103
0.001714982
0.001373029
0.001102624
0.0008952529
0.0007381492
0.0006197287
0.0005307745
0.0004638815
0.0004124366
0.0003699626
0.0003306713
0.0002930533
0.0002686847
0.0002927959
0.0003925177
0.000590455
0.000908272
0.001352229
0.001865098
0.002340172
0.002737358
0.003098638
0.003592061
0.005234241