/*--------------------------------*- C++ -*----------------------------------*\
| =========                 |                                                 |
| \\      /  F ield         | OpenFOAM: The Open Source CFD Toolbox           |
|  \\    /   O peration     | Version:  2506                                  |
|   \\  /    A nd           | Website:  www.openfoam.com                      |
|    \\/     M anipulation  |                                                 |
\*---------------------------------------------------------------------------*/
FoamFile
{
    version     2.0;
    format      ascii;
    arch        "LSB;label=32;scalar=64";
    class       volScalarField;
    location    "300/airRegion";
    object      nut;
}
// * * * * * * * * * * * * * * * * * * * * * * * * * * * * * * * * * * * * * //

dimensions      [0 2 -1 0 0 0 0];

internalField   nonuniform List<scalar> 
85779
(
0.09218034
0.09255096
0.09234949
0.09211669
0.09186103
0.09140121
0.09013916
0.08606257
0.07520551
0.06815897
0.06687386
0.06756488
0.07001724
0.07414401
0.07917991
0.08343034
0.08451486
0.07988964
0.0719322
0.06554328
0.06372077
0.06758048
0.07987543
0.0884472
0.09064807
0.09109766
0.09072071
0.08817535
0.07419847
0.02015467
0.09228583
0.09278346
0.09240894
0.09188104
0.09126097
0.09022388
0.08771051
0.08107796
0.07383629
0.06989669
0.06848913
0.068873
0.07099166
0.07474315
0.07939545
0.08335354
0.08436895
0.07997829
0.07223279
0.06603818
0.0643672
0.06756899
0.07514181
0.08493583
0.08840624
0.08915275
0.08839934
0.08455052
0.06886616
0.01893227
0.092109
0.09233924
0.09174781
0.09100512
0.09014064
0.08869999
0.08527103
0.07828346
0.07374246
0.07108394
0.06993926
0.0702145
0.07200892
0.07525738
0.07930825
0.08274524
0.08355069
0.07938762
0.07180922
0.0655563
0.06351543
0.06580144
0.07185376
0.08254264
0.08635914
0.08719528
0.08648492
0.08293247
0.06862851
0.01913887
0.09206406
0.09210467
0.09134089
0.09043969
0.08937983
0.08752079
0.08312307
0.07627517
0.0729233
0.07115386
0.07047827
0.07089524
0.07254614
0.07538558
0.07884084
0.08168984
0.08219015
0.07816213
0.07061201
0.06412081
0.06165218
0.06343937
0.06932115
0.08120896
0.08518187
0.08610101
0.08558757
0.08256794
0.06942606
0.01930832
0.09208054
0.09203657
0.09117138
0.09016364
0.08895222
0.08666077
0.0809061
0.07498699
0.07204747
0.07073451
0.07041064
0.07100051
0.07259083
0.07510063
0.07799455
0.08022173
0.08033462
0.07636082
0.06879581
0.06211628
0.05948438
0.06129334
0.06759132
0.08049603
0.08461157
0.08563237
0.08531427
0.08269715
0.07023877
0.01942698
0.09210783
0.0920314
0.09111104
0.09003315
0.08870513
0.08611633
0.07954937
0.07385353
0.07129236
0.07029033
0.07017681
0.0708519
0.07234802
0.07452392
0.07684113
0.07838769
0.0780247
0.07405249
0.06652455
0.05983406
0.05735074
0.05951354
0.06638633
0.0800861
0.0843501
0.08547408
0.08530389
0.08291839
0.07064141
0.01951064
0.09212934
0.09204001
0.09108745
0.08995698
0.08850755
0.08552407
0.07822758
0.07336226
0.07109284
0.07017707
0.07007367
0.07068907
0.0720001
0.07378466
0.07546536
0.07624278
0.07530661
0.07130137
0.0639107
0.0574169
0.05533256
0.05801505
0.06546706
0.07981202
0.08422335
0.0854413
0.08537749
0.08313078
0.07092087
0.01956753
0.09214258
0.09204647
0.09107292
0.08990148
0.08834299
0.08500358
0.07729731
0.07328401
0.07121598
0.07024493
0.07004598
0.07053108
0.07160835
0.07295712
0.07393681
0.07385034
0.07224749
0.06818456
0.06103858
0.05492835
0.05341884
0.05669234
0.06468855
0.07959201
0.08414558
0.08544633
0.08545962
0.08329972
0.07111809
0.01960575
0.0921492
0.09204796
0.09105991
0.08986107
0.08823946
0.08472281
0.07658728
0.07282123
0.07095737
0.0700777
0.06989225
0.07030772
0.07117815
0.07208851
0.07232831
0.07130789
0.0689706
0.06483343
0.05801464
0.05242233
0.05159108
0.05547305
0.06397316
0.079385
0.0840776
0.08545259
0.08552399
0.08342086
0.07125202
0.01963098
0.09215155
0.09204541
0.09104585
0.08982574
0.08816158
0.08455669
0.07617785
0.07242445
0.07065205
0.06985197
0.06970128
0.07007399
0.07076175
0.07125042
0.07075346
0.06878993
0.06570359
0.06148054
0.05501599
0.04998928
0.04985516
0.05431769
0.06328013
0.07916186
0.08400024
0.08544658
0.08556495
0.08350094
0.07133881
0.01964708
0.09215158
0.09204035
0.09102964
0.08978673
0.08807458
0.08439083
0.07588456
0.0721665
0.07046295
0.06971398
0.06957787
0.06990228
0.07042267
0.07053426
0.06937916
0.06657115
0.06280163
0.05847813
0.05231638
0.04778197
0.04825593
0.05320823
0.0625595
0.07886078
0.08389027
0.08542142
0.08558388
0.0835492
0.07139183
0.01965689
0.09215065
0.09203419
0.09101099
0.08973642
0.08794268
0.08412442
0.07566062
0.07208435
0.07044663
0.06971156
0.06955602
0.06981872
0.07019687
0.07002222
0.068387
0.06496538
0.06067376
0.05624113
0.05026578
0.04602302
0.04690028
0.05216263
0.06169618
0.07819246
0.08366591
0.0853621
0.08558237
0.08357394
0.0714216
0.01966244
0.09214957
0.09202846
0.09099214
0.08967227
0.08772491
0.08357767
0.07556827
0.07213422
0.07050437
0.06975716
0.06957647
0.06979027
0.07008
0.06975572
0.06789412
0.06419124
0.05964166
0.05514186
0.04922223
0.04499032
0.0460097
0.05138632
0.06070889
0.07581311
0.08307651
0.08523488
0.08556028
0.08358186
0.07143609
0.01966524
0.09214878
0.09202434
0.09097844
0.08962132
0.0874368
0.08218289
0.07559773
0.07220151
0.07056863
0.06980888
0.06960443
0.06978975
0.07005989
0.06974908
0.06795748
0.06436972
0.0599108
0.05543949
0.04944052
0.04489863
0.0457781
0.05108954
0.05995895
0.07294203
0.08242563
0.08508915
0.08552835
0.08357983
0.07144143
0.01966642
0.09214852
0.09202255
0.09097204
0.08960097
0.08737674
0.08206518
0.07555903
0.07223879
0.07061643
0.06983808
0.06961359
0.06979853
0.07012772
0.07000788
0.06860948
0.06557136
0.06157862
0.0572182
0.05092879
0.0456277
0.04586271
0.05079907
0.05929192
0.07345281
0.0822663
0.08501423
0.08550665
0.08357538
0.07144187
0.01966665
0.09214886
0.09202349
0.09097427
0.08961166
0.08753106
0.0831466
0.07542137
0.07220162
0.07059742
0.06980989
0.06958614
0.06980787
0.07027042
0.07049385
0.06975939
0.06762787
0.06440117
0.0602275
0.05349408
0.04715292
0.04640265
0.0508441
0.05912638
0.07190408
0.08206683
0.0849796
0.08549646
0.08357112
0.07143963
0.01966634
0.09214972
0.09202697
0.09098411
0.08963131
0.08754093
0.08303608
0.07558699
0.07220428
0.07052774
0.06973378
0.06953378
0.06982289
0.07046402
0.07110382
0.07114592
0.07006935
0.06775119
0.06382123
0.0565815
0.04919544
0.04738367
0.05126313
0.05933028
0.07339009
0.08223238
0.08499811
0.08549709
0.08356687
0.07143469
0.01966548
0.09215103
0.09203242
0.09100073
0.08968209
0.08769125
0.08335223
0.07573816
0.07218369
0.0704503
0.06965607
0.06948789
0.06985821
0.07069372
0.07175544
0.07255338
0.07249392
0.07107134
0.06740708
0.05968292
0.05136688
0.04858996
0.05198829
0.0600452
0.07294074
0.08236899
0.08505376
0.08550693
0.08356069
0.0714251
0.0196637
0.09215253
0.09203907
0.09102191
0.08975925
0.08797895
0.0841282
0.07572804
0.07206325
0.07036344
0.06960531
0.0694802
0.06993595
0.07096229
0.07241611
0.07388871
0.07472112
0.07408697
0.07065157
0.06248617
0.05337964
0.04973762
0.05262973
0.06085752
0.07688448
0.08314218
0.08519421
0.0855264
0.08354885
0.07140704
0.0196603
0.09215378
0.09204533
0.09103934
0.08980669
0.08811514
0.08445442
0.07598954
0.07222299
0.07046315
0.06967759
0.06956142
0.07008396
0.07128284
0.07308754
0.07514357
0.07672652
0.0767416
0.07346158
0.06492071
0.05523784
0.05095312
0.05348104
0.06190432
0.07826563
0.08361362
0.08531169
0.08553751
0.08352354
0.07137466
0.01965425
0.09215392
0.09205022
0.09105397
0.08984053
0.08818993
0.08460382
0.07627092
0.07250793
0.07069868
0.06986494
0.06973368
0.07030402
0.07165658
0.07377609
0.07633842
0.0785477
0.07907678
0.07586758
0.06703869
0.0570498
0.05240119
0.05462968
0.06289424
0.07885234
0.08384419
0.08537119
0.08552541
0.08347514
0.07131998
0.01964413
0.09215155
0.09205251
0.09106706
0.08987312
0.08826127
0.08476053
0.07667478
0.07291636
0.07101765
0.07010392
0.06994143
0.0705544
0.07205689
0.07447292
0.07748836
0.08022698
0.08115262
0.07793041
0.06889022
0.05879914
0.05394501
0.05584029
0.06373555
0.0791878
0.08396825
0.08539179
0.08548767
0.08339504
0.0712326
0.01962797
0.09214472
0.09205066
0.09107963
0.08991316
0.08836344
0.08503282
0.07737509
0.07339706
0.07126493
0.07024303
0.07007135
0.07075917
0.0724361
0.07515316
0.07859203
0.08178826
0.08301312
0.079704
0.07052268
0.06048077
0.05552591
0.05707701
0.06452611
0.07945816
0.08405906
0.08539293
0.08542537
0.08327445
0.07109919
0.01960291
0.09213113
0.0920437
0.09109389
0.089969
0.08852488
0.08553022
0.07840716
0.07359187
0.07114376
0.0701229
0.07004921
0.07087905
0.07276481
0.07579215
0.07963455
0.08323255
0.08467609
0.08122251
0.07197722
0.06211857
0.05716304
0.05839189
0.06535888
0.07971435
0.08415172
0.08539368
0.08534556
0.0831068
0.07090344
0.01956505
0.0921092
0.09203445
0.09111696
0.09004647
0.08874006
0.08631522
0.08063854
0.07379173
0.07121053
0.07019226
0.07013691
0.07103003
0.07306948
0.07637297
0.08058776
0.08453821
0.08613281
0.08249488
0.07327314
0.06373593
0.05890518
0.05987068
0.06632561
0.08001536
0.08429129
0.08543238
0.08527485
0.08289625
0.07062565
0.01950867
0.09208151
0.09203892
0.09117614
0.09017452
0.08898258
0.08677296
0.08129777
0.07512886
0.07208349
0.07072012
0.07042848
0.07120993
0.07329934
0.07682991
0.08139178
0.08565933
0.08735092
0.08350037
0.07438477
0.06531134
0.06078343
0.06162416
0.0675707
0.08044827
0.08456487
0.0855969
0.08528851
0.08267666
0.07022007
0.01942561
0.09206468
0.09210639
0.09134457
0.09044888
0.08941664
0.08769543
0.08369289
0.07623305
0.0728998
0.07115866
0.0705346
0.07113617
0.07325392
0.07702566
0.08195455
0.08653268
0.08828179
0.08418686
0.07521761
0.06671871
0.06272722
0.06373854
0.06932973
0.08118008
0.08514632
0.08607194
0.08556556
0.08255001
0.06940933
0.01930747
0.09210936
0.0923404
0.09175039
0.09101084
0.09015637
0.08875536
0.08543974
0.07836199
0.07377542
0.07112848
0.07003295
0.07048669
0.0727244
0.0768342
0.0821967
0.08710059
0.08887551
0.0844842
0.07560785
0.06767003
0.06440567
0.06606877
0.07187983
0.08252764
0.0863338
0.0871731
0.08646748
0.08291805
0.06861619
0.01913843
0.092286
0.09278412
0.09241048
0.09188438
0.09126819
0.09024008
0.08773906
0.08105677
0.07372207
0.06997799
0.06862444
0.06917629
0.07172096
0.07628002
0.08211505
0.08733041
0.08909229
0.08434735
0.07540519
0.06777984
0.06511649
0.06781468
0.07518235
0.08493147
0.08839113
0.08913877
0.08838804
0.08454084
0.06885798
0.0189321
0.09218037
0.09255112
0.09234992
0.09211775
0.0918634
0.091405
0.09013216
0.0858487
0.07358853
0.06867425
0.06719005
0.06792641
0.07076529
0.07565887
0.081794
0.08716988
0.08885434
0.08380628
0.07470456
0.0670402
0.06437128
0.06780992
0.07991847
0.0884476
0.09064354
0.09109335
0.09071716
0.08817213
0.07419551
0.02015465
0.09228583
0.09278347
0.09240897
0.09188107
0.09126135
0.09022755
0.08772586
0.08108592
0.0738419
0.06990102
0.06849206
0.06887932
0.0710117
0.074794
0.07949952
0.08352655
0.08459898
0.0802218
0.07243798
0.06617701
0.06444398
0.06760547
0.07515605
0.08493895
0.08840762
0.08915355
0.08840016
0.08455191
0.06886862
0.01893254
0.09172527
0.09310925
0.0934484
0.09287041
0.0916974
0.08975502
0.08629702
0.0808998
0.07550057
0.07194724
0.07025578
0.07026787
0.07201366
0.07538706
0.0796875
0.0834057
0.0843968
0.08025672
0.0727003
0.06658372
0.06491906
0.06780011
0.07391614
0.08078398
0.08460736
0.08534458
0.08309695
0.07539093
0.05486329
0.01432626
0.0909661
0.09183435
0.09230467
0.0918249
0.09053344
0.08835068
0.08475713
0.08043117
0.07639369
0.07346426
0.07185531
0.07167361
0.07303941
0.0758739
0.07954936
0.08272609
0.08349103
0.07959328
0.0722846
0.06619835
0.064273
0.06648165
0.07141853
0.07713737
0.08058463
0.08108064
0.07835189
0.07015071
0.05048283
0.01374355
0.09065315
0.09093218
0.09101966
0.09030439
0.08881919
0.08649222
0.08301375
0.07924558
0.07607448
0.07379239
0.07251934
0.07239749
0.07356694
0.07595939
0.0790156
0.08158012
0.0820192
0.07827256
0.0710885
0.06485489
0.06252591
0.06413537
0.06842979
0.07381789
0.07717709
0.07778818
0.07544655
0.06819402
0.05018828
0.01410545
0.09057676
0.09055463
0.09030713
0.08930391
0.08757348
0.08501592
0.08156065
0.07800118
0.07525448
0.07340676
0.07245546
0.07247858
0.07356507
0.07560977
0.078083
0.07999532
0.08001906
0.07633433
0.06921091
0.06282081
0.06024023
0.06163253
0.06588667
0.07153702
0.07511861
0.07608624
0.07438177
0.0681739
0.0513061
0.01447156
0.09057913
0.09043759
0.08999674
0.08878505
0.08684407
0.08403072
0.08038828
0.07692951
0.07443326
0.07285179
0.07211071
0.07223035
0.07323166
0.07494049
0.07681475
0.07800568
0.07751705
0.07383445
0.06680167
0.06039418
0.05785232
0.05941572
0.06401124
0.07017157
0.07410945
0.07547674
0.07432381
0.06884375
0.05251605
0.01472943
0.09059657
0.09041135
0.0898678
0.08852162
0.08641674
0.08335046
0.07961142
0.07629205
0.07393792
0.07246814
0.07179653
0.07190971
0.07276043
0.07408328
0.07528814
0.07565096
0.07454403
0.07083062
0.06398218
0.05776244
0.05554785
0.05754704
0.06264781
0.06936255
0.07366195
0.07537735
0.07462656
0.0696008
0.05350896
0.01490154
0.09060987
0.09040602
0.08980487
0.08837219
0.08614667
0.08286206
0.07908314
0.07593295
0.07366516
0.07222498
0.0715476
0.07159403
0.07224441
0.07312354
0.0735672
0.07297863
0.07115261
0.06739744
0.06085042
0.05502448
0.05336473
0.05594511
0.06159116
0.06882384
0.07344638
0.07544245
0.07497338
0.07022901
0.0542404
0.01501479
0.09061595
0.09039988
0.08976296
0.08827542
0.08597188
0.0825351
0.07860944
0.07550373
0.07331887
0.07193993
0.07128205
0.07127291
0.07171735
0.07211828
0.07172137
0.0700766
0.06746128
0.06367228
0.05752794
0.05225482
0.05129502
0.05451464
0.06069084
0.06838059
0.07329343
0.07551649
0.07524873
0.07068506
0.05474584
0.01508826
0.0906163
0.09038838
0.08972484
0.08819799
0.08584288
0.08230727
0.07827688
0.07515799
0.07301294
0.07168045
0.0710425
0.07098375
0.07122652
0.07114129
0.06987266
0.06713703
0.0637243
0.05991499
0.05421509
0.0495595
0.04934165
0.05318571
0.05984716
0.06794543
0.07313239
0.07554497
0.0754285
0.07098782
0.05507832
0.0151346
0.09061314
0.09037217
0.08968411
0.08812127
0.08572231
0.08211658
0.07804463
0.07493467
0.0728201
0.07151532
0.07088185
0.07076893
0.07082406
0.07029493
0.06823157
0.06451096
0.06037886
0.05653576
0.05122189
0.04710867
0.04754858
0.05192786
0.05899306
0.06744262
0.07292502
0.07551307
0.07552148
0.0711713
0.05528538
0.01516251
0.0906084
0.09035367
0.08964054
0.08803923
0.08559683
0.08195581
0.07792073
0.07485368
0.07276131
0.07146061
0.07081069
0.07063989
0.07054373
0.06968487
0.06704973
0.06262296
0.05793624
0.05401365
0.04893831
0.04514124
0.04602511
0.05077854
0.05811056
0.06680217
0.07261728
0.07541122
0.07554328
0.07126787
0.05540459
0.01517809
0.09060385
0.09033693
0.08960065
0.08795935
0.08546921
0.08184421
0.07787631
0.07483578
0.07275165
0.07144913
0.07078241
0.07056966
0.07038672
0.06936591
0.06647241
0.06172928
0.05676124
0.05276079
0.04775358
0.04393911
0.0449602
0.04989228
0.05730456
0.06597334
0.0721387
0.07522971
0.07550963
0.07130465
0.05546469
0.01518582
0.09060058
0.09032507
0.08957247
0.08790077
0.08535225
0.08175694
0.07784381
0.07483322
0.07276033
0.07145274
0.07076957
0.07053658
0.0703457
0.069357
0.06655881
0.06195268
0.05707551
0.05306663
0.04795568
0.04373907
0.04453168
0.04944865
0.05677462
0.06522734
0.07162144
0.07501702
0.07544733
0.07130605
0.0554879
0.0151889
0.09059923
0.0903199
0.08955953
0.0878743
0.08530779
0.08171342
0.07783635
0.07484807
0.07277311
0.07145139
0.07075455
0.07052942
0.07041925
0.06967668
0.06737071
0.0634108
0.05902258
0.05505254
0.04960429
0.0445497
0.04460206
0.04918346
0.0563175
0.06470436
0.07129488
0.07487124
0.07539603
0.07129491
0.05549179
0.01518939
0.09060011
0.09032251
0.08956444
0.08788358
0.08534073
0.08170437
0.07783307
0.0748474
0.07276037
0.07142697
0.07072994
0.07054536
0.07059625
0.07028444
0.06881561
0.06593936
0.06236113
0.05847621
0.05249721
0.04632655
0.04526404
0.04928168
0.05619177
0.06449254
0.07116307
0.07481119
0.07536912
0.07128154
0.05548479
0.01518851
0.09060317
0.09033281
0.08958749
0.08792554
0.08540756
0.08179856
0.07787842
0.07483611
0.07272472
0.07138771
0.07070612
0.07058647
0.07084011
0.07103218
0.07051872
0.06889332
0.0662924
0.06257161
0.05599176
0.04872104
0.04646011
0.04980244
0.05644518
0.06466608
0.07124288
0.07483283
0.07536563
0.07126582
0.05546658
0.01518623
0.09060789
0.09034886
0.08962426
0.08799781
0.08552502
0.08193131
0.07794163
0.07483962
0.07270213
0.07136253
0.07070295
0.07065931
0.07112287
0.07180061
0.07217486
0.07171906
0.07008772
0.06660505
0.05948059
0.05125479
0.04792348
0.05061649
0.05703152
0.06516023
0.07150607
0.07493098
0.07537931
0.0712401
0.05542955
0.0151814
0.09061348
0.09036812
0.08966855
0.08808531
0.08565589
0.08200854
0.07794449
0.07483285
0.07270292
0.07137504
0.07074368
0.07077838
0.07144039
0.07254922
0.07368107
0.07421921
0.07344155
0.07019895
0.0626167
0.05362085
0.04940099
0.05148921
0.05770327
0.06595346
0.07200171
0.07510116
0.07539686
0.07118908
0.05535924
0.01517198
0.09061864
0.09038676
0.08971015
0.0881627
0.08578012
0.08219633
0.07811992
0.0749776
0.07282103
0.07147991
0.07086163
0.0709637
0.07180353
0.07328541
0.07504921
0.07640259
0.07632731
0.07327042
0.0653148
0.05576916
0.05090323
0.05249271
0.05852314
0.06676253
0.07247792
0.07526083
0.07538327
0.0710869
0.05523329
0.015155
0.0906219
0.09040236
0.08974775
0.08823168
0.08588853
0.08237894
0.07836202
0.07523
0.07305155
0.07168544
0.0710655
0.07122107
0.07221841
0.07402608
0.0763227
0.07834275
0.07882386
0.0758732
0.06762488
0.0577717
0.05253281
0.05373884
0.05949357
0.06746324
0.07281451
0.07534007
0.0752997
0.0709007
0.05502152
0.01512621
0.09062138
0.09041311
0.08978382
0.08830483
0.0860119
0.08260219
0.07869738
0.0755864
0.07337097
0.07196167
0.07132733
0.07152844
0.0726723
0.0747755
0.07753521
0.08010839
0.08101986
0.0780909
0.06961774
0.05965291
0.05422858
0.05508949
0.06046347
0.06803586
0.07303765
0.07533579
0.07512553
0.07059678
0.0546865
0.01507961
0.0906149
0.09041843
0.08982487
0.08840142
0.08618831
0.08293395
0.07917747
0.07601777
0.07370755
0.07223444
0.07158723
0.07184206
0.07313594
0.07552115
0.07869815
0.08173978
0.08297724
0.07999318
0.07135953
0.06144123
0.0559697
0.05651927
0.0614605
0.0685782
0.07322288
0.07527583
0.07485506
0.07014187
0.05418108
0.01500651
0.09060099
0.0904227
0.08988726
0.08855217
0.08646229
0.08342777
0.07974009
0.07638567
0.07395283
0.07244223
0.0718108
0.07213562
0.07358347
0.07624059
0.07980126
0.08324573
0.08472288
0.08162147
0.07289926
0.06317329
0.05778757
0.05808532
0.06257352
0.06918054
0.07346785
0.07522483
0.07451496
0.06951736
0.05345211
0.01489415
0.09058278
0.09044747
0.09001484
0.08881578
0.08689564
0.08413107
0.08045404
0.07695299
0.07441249
0.07281177
0.07212123
0.0724491
0.07400332
0.07690054
0.08081186
0.08460601
0.08625093
0.0829848
0.07425241
0.0648656
0.05972872
0.05989916
0.06397637
0.07004153
0.07394562
0.07534018
0.07422083
0.06876587
0.05246335
0.01472327
0.09057957
0.09056269
0.09032253
0.08933097
0.08762095
0.0851087
0.08168662
0.07808609
0.07529068
0.07341496
0.07250195
0.07271511
0.07430866
0.07741807
0.08166389
0.08577382
0.08752894
0.0840582
0.07538008
0.06646657
0.06178187
0.0620526
0.06587876
0.07144454
0.07498316
0.07596652
0.07428848
0.06810217
0.05125693
0.0144668
0.09065518
0.09093848
0.09103221
0.09032713
0.08886045
0.08656641
0.08304154
0.0792761
0.076108
0.07382199
0.07259253
0.0726523
0.07429404
0.07765187
0.08226385
0.08668627
0.0885084
0.08478612
0.0761745
0.06780601
0.06377729
0.06449097
0.06843718
0.07374982
0.07706759
0.07768659
0.07536479
0.06813008
0.05014502
0.01410201
0.09096748
0.09183894
0.09231408
0.09184186
0.0905629
0.08840098
0.08483899
0.08050442
0.07644548
0.0735133
0.07195059
0.07194582
0.07375881
0.07748058
0.08253488
0.08728768
0.08914177
0.08510262
0.07648041
0.06858626
0.06528822
0.06678193
0.07143583
0.07708712
0.08050197
0.08100196
0.07828689
0.07009851
0.05044734
0.01374121
0.09172607
0.09311198
0.09345414
0.0928813
0.0917169
0.0897885
0.08635567
0.08094907
0.07550665
0.07199452
0.07036426
0.07055535
0.07273346
0.07693576
0.08247574
0.08754652
0.08939286
0.08497732
0.07620114
0.06853671
0.0657546
0.06806201
0.07394714
0.08075727
0.08455612
0.0852962
0.08305687
0.07535759
0.05483921
0.01432493
0.09228601
0.09278412
0.0924105
0.09188447
0.09126864
0.09024428
0.08783947
0.08183073
0.07361246
0.06995165
0.06862648
0.06918566
0.07173717
0.07630901
0.08216434
0.08740366
0.08918404
0.08444355
0.07549213
0.06784593
0.06515931
0.06783975
0.0751948
0.08493451
0.08839254
0.08913958
0.08838881
0.08454214
0.06886035
0.01893235
0.09210901
0.0923393
0.09174796
0.09100556
0.09014511
0.08873281
0.08540268
0.07831211
0.07375435
0.07109263
0.06994491
0.07023062
0.07206307
0.07539491
0.07958956
0.08321433
0.08417854
0.08005882
0.07238048
0.06594534
0.06372912
0.06589887
0.07188892
0.08255023
0.08636308
0.0871989
0.08648903
0.0829377
0.06863516
0.01913945
0.09096614
0.09183453
0.09230503
0.09182547
0.09053544
0.08835899
0.08477821
0.08044304
0.07640188
0.07346837
0.07185774
0.07168345
0.07307371
0.07596116
0.07972797
0.08302431
0.08389128
0.08002356
0.07265458
0.06645352
0.06441527
0.06654942
0.07144821
0.07715278
0.08059314
0.0810878
0.07835999
0.07016053
0.05049246
0.01374507
0.08980965
0.08977014
0.09064204
0.09095838
0.09026648
0.08848745
0.08547755
0.08184177
0.07830281
0.07547057
0.07368507
0.07317184
0.0740928
0.07638641
0.07948995
0.08220818
0.08282043
0.07922125
0.07225423
0.06629759
0.06424179
0.06598272
0.06990236
0.07401983
0.07628674
0.07582103
0.07164898
0.06162738
0.04194069
0.01139409
0.0893022
0.0883456
0.08866567
0.08890729
0.08840701
0.08694621
0.08448208
0.08150497
0.07857385
0.07613566
0.07450835
0.07393703
0.07458666
0.07639184
0.07883937
0.08090368
0.08115491
0.0777301
0.07104756
0.06514347
0.0628358
0.06401518
0.06709698
0.07029006
0.07191537
0.07108774
0.06676648
0.05707862
0.03885872
0.01098067
0.08914357
0.08772548
0.08750994
0.08734831
0.08663662
0.08513595
0.08288341
0.08028927
0.07781269
0.07577873
0.07443018
0.07396533
0.07450349
0.07593713
0.07776835
0.07913099
0.07892286
0.07557135
0.06907451
0.0631258
0.06055536
0.06133275
0.0639832
0.06687989
0.06845395
0.06789524
0.06422448
0.05565325
0.03879263
0.01125171
0.08911269
0.08751681
0.08699803
0.08651102
0.08552902
0.08383024
0.08153061
0.07906219
0.07682428
0.07505755
0.07393149
0.07357811
0.07404125
0.07513229
0.07632619
0.07690194
0.0761268
0.07278051
0.06646362
0.06053616
0.05791118
0.05864863
0.06135416
0.06447604
0.06639765
0.0664041
0.06355865
0.05601789
0.03992079
0.01158074
0.08911641
0.08746049
0.08679336
0.08610807
0.08492198
0.08302163
0.08062149
0.07817536
0.07603537
0.07439754
0.07338457
0.07307055
0.07341294
0.074111
0.07457459
0.07422792
0.0727701
0.06940231
0.06334526
0.05761811
0.05523652
0.05628692
0.05938568
0.06299675
0.06540403
0.06599088
0.06383504
0.0570043
0.04121543
0.01182785
0.08912356
0.08744575
0.08670401
0.08590377
0.08458293
0.08252433
0.08003194
0.07758089
0.07547637
0.0738905
0.07291731
0.07258053
0.07274338
0.07296526
0.07255974
0.07112317
0.06887748
0.06550476
0.05983672
0.0545273
0.05266736
0.05427202
0.05792062
0.06208335
0.06496766
0.0660367
0.06438064
0.05799429
0.04229001
0.01199471
0.08912646
0.08743556
0.08665043
0.08578113
0.08437463
0.08220326
0.07961204
0.07712823
0.07503705
0.07348244
0.07252751
0.07214358
0.0720889
0.07175524
0.07033324
0.06764828
0.06455286
0.06123221
0.05608365
0.05137808
0.05023527
0.05251073
0.05673819
0.061416
0.06474239
0.06618566
0.06487957
0.05877127
0.04307209
0.012103
0.08912489
0.08742091
0.08660433
0.08568792
0.08422073
0.08197449
0.07931323
0.07679575
0.07470623
0.07317018
0.0722226
0.07178144
0.07149186
0.07055631
0.06802249
0.06401435
0.06008842
0.05688666
0.05232352
0.04830761
0.0479568
0.05091627
0.05569075
0.06083266
0.06455156
0.06628621
0.06523121
0.05930686
0.04359878
0.01217082
0.08912041
0.08740178
0.08655739
0.08560228
0.0840852
0.08179163
0.07909601
0.07656559
0.07448126
0.07295733
0.07200897
0.07150856
0.07099691
0.06949659
0.06592092
0.06071263
0.05606444
0.05297237
0.04892241
0.04551468
0.04587877
0.04944423
0.05469263
0.0602385
0.06431718
0.06629237
0.06542991
0.05963824
0.04393002
0.01221116
0.08911475
0.08738094
0.08651023
0.08551972
0.08396131
0.08164692
0.07895118
0.07642765
0.07435135
0.0728323
0.07187526
0.07132218
0.07064106
0.06873248
0.06442587
0.05838335
0.05316577
0.05006176
0.0463261
0.04326027
0.04410454
0.04812114
0.05373473
0.05960482
0.06400809
0.0662011
0.06550223
0.05981637
0.04412105
0.01223318
0.08910954
0.08736253
0.08646922
0.08544723
0.08385191
0.08153022
0.07884514
0.07633382
0.07426808
0.07275315
0.07178743
0.07120004
0.07043091
0.06833617
0.06371801
0.05731628
0.05179635
0.04860587
0.04496063
0.04183984
0.04279956
0.0470564
0.05289593
0.05897103
0.06362859
0.06603053
0.06548386
0.05988927
0.04421701
0.01224356
0.08910586
0.08734968
0.08644074
0.08539663
0.0837726
0.08144429
0.07877267
0.07627596
0.07421798
0.07270134
0.07172526
0.07112581
0.07036266
0.06832488
0.06383604
0.05760022
0.05217379
0.04892044
0.04515092
0.0415312
0.04214665
0.04639106
0.05231005
0.05845621
0.063257
0.06583304
0.06541883
0.05990011
0.04425412
0.01224715
0.08910436
0.0873443
0.08642833
0.08537402
0.0837379
0.08140914
0.07874651
0.07625498
0.07419393
0.07266718
0.0716809
0.07109706
0.07044599
0.06874221
0.06490304
0.05944375
0.05451732
0.05117784
0.0470066
0.04246409
0.04220141
0.04608696
0.05191467
0.05807073
0.0629878
0.06568328
0.06535593
0.05988603
0.04426059
0.01224733
0.08910533
0.08734735
0.08643427
0.08538344
0.08375344
0.08142524
0.07875986
0.07626032
0.07418737
0.0726475
0.07165712
0.07111844
0.07067471
0.06955472
0.06686019
0.06275261
0.05864302
0.05518096
0.05031628
0.04457827
0.04304459
0.04626805
0.051855
0.05794561
0.0628853
0.06561748
0.06531887
0.05986579
0.04425085
0.01224609
0.0891087
0.08735862
0.08645833
0.08542437
0.08381329
0.08148966
0.07880913
0.07629017
0.07420106
0.07264972
0.07166344
0.07118891
0.07099118
0.07052906
0.06910565
0.06655867
0.06347993
0.06000674
0.05436244
0.04744727
0.04456165
0.04695128
0.05217521
0.05810908
0.06295789
0.06563773
0.0653086
0.05983946
0.04422422
0.01224329
0.08911396
0.08737629
0.08649628
0.08549016
0.0839118
0.0815968
0.07889772
0.07635558
0.0742478
0.07268617
0.07170988
0.07130681
0.0713473
0.07147868
0.07116262
0.07001868
0.06799185
0.06468336
0.05837447
0.05046041
0.04640486
0.04797362
0.0527945
0.05852182
0.06318547
0.06573016
0.06531123
0.05979212
0.04416753
0.01223707
0.0891203
0.0873978
0.08654258
0.08557015
0.08402988
0.08171436
0.07900248
0.07645129
0.07433542
0.0727704
0.07180948
0.07147823
0.07173151
0.07235683
0.07292887
0.07293018
0.07183969
0.0687702
0.06195399
0.05327019
0.04830238
0.04914453
0.05356155
0.0590741
0.06352323
0.06586318
0.06529779
0.05969484
0.04405639
0.01222423
0.08912649
0.08741956
0.0865899
0.08565135
0.08415372
0.08187141
0.0791722
0.07662041
0.07449722
0.07292754
0.07198062
0.07171558
0.07215415
0.07318595
0.07446252
0.07537279
0.07505659
0.07220838
0.06500713
0.05578492
0.05018112
0.05042888
0.05444713
0.05969771
0.06387557
0.06597104
0.0652195
0.05950367
0.04385481
0.01220017
0.0891311
0.08743858
0.08663528
0.0857328
0.08428243
0.08205157
0.07939649
0.07686743
0.07474647
0.07317223
0.07223511
0.0720277
0.07262762
0.07400071
0.07584852
0.07748366
0.07778379
0.07509098
0.06759151
0.058052
0.05207989
0.05187167
0.05547687
0.06036198
0.06417281
0.06599114
0.06502273
0.05916495
0.04351606
0.01215851
0.08913253
0.08745263
0.08667992
0.08582331
0.08442923
0.08227627
0.07969697
0.07720743
0.07509063
0.07350621
0.07257111
0.07241171
0.0731541
0.07482291
0.07714961
0.07937365
0.08015401
0.0775349
0.06980132
0.06013257
0.05400161
0.0534326
0.05659188
0.06102506
0.06440896
0.06590962
0.06467431
0.05862597
0.04298503
0.01209022
0.08912924
0.08746185
0.08673229
0.08594528
0.08463808
0.08260049
0.08012108
0.07766298
0.07553244
0.07392201
0.0729768
0.0728543
0.07372305
0.07565476
0.07839546
0.08110764
0.08225551
0.07963113
0.07172218
0.06208901
0.05597391
0.05513465
0.05783959
0.06176447
0.06466679
0.06577606
0.06418089
0.05784986
0.0422023
0.01198234
0.08912149
0.08747525
0.08682027
0.08614932
0.08497846
0.08310172
0.08071485
0.07825332
0.07608223
0.07442436
0.07344789
0.07334057
0.07431289
0.0764778
0.07958344
0.08270651
0.08412843
0.08143052
0.0734092
0.06396746
0.05804324
0.05706157
0.05935694
0.06275387
0.06513328
0.06574726
0.06364427
0.05686474
0.0411305
0.01181665
0.08911701
0.08752982
0.08702281
0.08655084
0.08558599
0.08391357
0.08161584
0.07913065
0.0768677
0.0750884
0.07400433
0.07384847
0.074879
0.07724448
0.08067817
0.08415371
0.08577184
0.08294211
0.07486886
0.06576344
0.06022688
0.05931192
0.0613544
0.06429591
0.06615717
0.06617981
0.06337943
0.05588565
0.03984079
0.01157118
0.08914708
0.08773651
0.08753182
0.08738463
0.08669047
0.08521625
0.08297816
0.08037582
0.07787878
0.07583267
0.07452363
0.07424317
0.07529653
0.07785406
0.08160813
0.08540312
0.08715467
0.08413618
0.07604271
0.06737535
0.06242392
0.06187391
0.06398859
0.06673751
0.06824216
0.06769234
0.0640589
0.05552951
0.03871791
0.0112439
0.08930499
0.08835482
0.08868454
0.08893926
0.08845535
0.08701719
0.08455818
0.08158412
0.07864372
0.07619959
0.07461338
0.07421808
0.07534411
0.07815775
0.08227843
0.08639387
0.08823066
0.08495456
0.07680672
0.06857603
0.06432413
0.06444228
0.06709583
0.07017046
0.07173535
0.07091287
0.06662088
0.0569676
0.03879118
0.01097446
0.0898118
0.08977745
0.09065708
0.09098414
0.09030627
0.08854723
0.08555434
0.0819222
0.07837222
0.07553617
0.07379356
0.07345194
0.07482213
0.07803643
0.08261524
0.08707433
0.08895723
0.0853382
0.07701768
0.0690674
0.0654259
0.06632124
0.06990083
0.07392608
0.07615001
0.07568797
0.07153682
0.06153937
0.04188521
0.01138954
0.09096755
0.09183915
0.0923145
0.09184266
0.09056397
0.08839868
0.08483139
0.08051264
0.07645579
0.07352468
0.07196343
0.07196224
0.07378523
0.07752831
0.08261674
0.08741014
0.08929698
0.08526811
0.07663307
0.06870529
0.06536664
0.06682762
0.0714603
0.07710058
0.08050968
0.08100894
0.07829464
0.07010767
0.05045622
0.01374261
0.09210937