/*--------------------------------*- C++ -*----------------------------------*\
| =========                 |                                                 |
| \\      /  F ield         | OpenFOAM: The Open Source CFD Toolbox           |
|  \\    /   O peration     | Version:  2506                                  |
|   \\  /    A nd           | Website:  www.openfoam.com                      |
|    \\/     M anipulation  |                                                 |
\*---------------------------------------------------------------------------*/
FoamFile
{
    version     2.0;
    format      ascii;
    arch        "LSB;label=32;scalar=64";
    class       surfaceScalarField;
    location    "300/airRegion";
    object      phi;
}
// * * * * * * * * * * * * * * * * * * * * * * * * * * * * * * * * * * * * * //

dimensions      [1 0 -1 0 0 0 0];

oriented        oriented;

internalField   nonuniform List<scalar> 
257196
(
0.01085486
0.0007328624
0.0007328117
0.01057811
0.001082298
0.001082161
0.01025535
0.001129547
0.001129266
0.01001946
0.001110594
0.001110334
0.01006039
0.001158787
0.001159118
0.01072896
0.001326911
0.001331813
0.01324996
0.001222412
0.001242703
0.02166672
-0.002018194
-0.001986086
0.0358025
-0.007121898
-0.007054508
0.04583776
-0.01134877
-0.01125308
0.05164385
-0.01775247
-0.01762907
0.05340203
-0.02593435
-0.0257742
0.05087035
-0.03572612
-0.03550142
0.04386696
-0.04663357
-0.0462902
0.03258627
-0.05748725
-0.05694858
0.01783877
-0.06629374
-0.06549272
0.001160528
-0.07030879
-0.06924927
-0.01426941
-0.06633493
-0.06514248
-0.02525905
-0.05481789
-0.05369069
-0.03018924
-0.03961722
-0.03867217
-0.02852965
-0.02485385
-0.02411263
-0.02068433
-0.01351101
-0.01277578
-0.01293904
-0.004005278
-0.003704081
-0.00953343
0.001357712
0.001328479
-0.008380942
0.002756146
0.002788552
-0.00792699
0.003707448
0.003718191
-0.007568872
0.004652169
0.004653575
-0.006801427
0.005587267
0.005585521
-0.004702595
0.005889879
0.00588722
0.0004488585
0.000445655
0.01964824
0.0006514155
0.002271459
0.01948399
0.001061919
0.003349875
0.01925678
0.001163302
0.003427479
0.01917869
0.001149145
0.00310149
0.01958094
0.001151994
0.002513494
0.0210041
0.001242025
0.001363998
0.0247578
0.0006432686
-0.001241995
0.03266014
-0.004335991
-0.005764073
0.0429037
-0.01006153
-0.009759498
0.05068934
-0.01413036
-0.01379589
0.05504916
-0.01935936
-0.02049898
0.05578606
-0.02604106
-0.0290959
0.05252037
-0.03406829
-0.0392423
0.04501047
-0.04305228
-0.0503508
0.0334143
-0.05204262
-0.06121701
0.01850333
-0.05935551
-0.06988862
0.001790582
-0.06262275
-0.07372643
-0.01380992
-0.05916115
-0.06961382
-0.0253826
-0.04934822
-0.05786946
-0.03141017
-0.03648632
-0.04224955
-0.0317852
-0.02390213
-0.02674737
-0.02788167
-0.01351969
-0.01419208
-0.02130575
-0.005145656
-0.005720792
-0.01688648
0.00021209
0.0009751899
-0.01476258
0.00211244
0.006554436
-0.01359829
0.003336898
0.01018751
-0.01246754
0.004348245
0.01337134
-0.010455
0.005148189
0.01702906
-0.005490527
0.005129789
0.02188692
0.0002029801
0.02921114
0.02361044
0.0004974123
0.003611473
0.02360345
0.000882522
0.005451096
0.02361711
0.001022726
0.005586439
0.02391072
0.001049946
0.004897016
0.02495136
0.001125222
0.00350793
0.02761189
0.001385553
0.0007859835
0.03431356
-0.000733435
-0.004889943
0.04412126
-0.005640031
-0.008890723
0.0516378
-0.01035359
-0.01137519
0.05697706
-0.01458313
-0.01663312
0.05963341
-0.01934927
-0.02408936
0.05907815
-0.02506723
-0.03332746
0.05485449
-0.03179824
-0.04401041
0.04669006
-0.03928073
-0.05549912
0.03469621
-0.04676577
-0.06659381
0.01957344
-0.0528525
-0.07539248
0.002730461
-0.05550498
-0.07929821
-0.01313328
-0.05243826
-0.07518246
-0.02528898
-0.04392278
-0.06314134
-0.03227909
-0.03282493
-0.0469113
-0.03391934
-0.02190369
-0.03045318
-0.03088635
-0.01267761
-0.01675798
-0.02431022
-0.005361589
-0.007512167
-0.01942002
-0.0002988162
0.001445487
-0.01675337
0.001663244
0.01029028
-0.01493994
0.002910431
0.01661916
-0.01296905
0.003864896
0.02235069
-0.009814006
0.004502689
0.02897071
-0.003176706
0.004370405
0.03761101
0.0009830865
0.04977655
0.02548594
0.000345175
0.004637196
0.02554555
0.0006556524
0.007166628
0.02575602
0.0007993235
0.007394953
0.02645621
0.000851446
0.006362811
0.02855232
0.0008405479
0.004087343
0.03384025
0.0005643597
-0.0005701414
0.04228699
-0.0008759661
-0.007211499
0.05113402
-0.005443704
-0.01068094
0.0579456
-0.009934362
-0.01396293
0.06227408
-0.01400267
-0.01988813
0.0638497
-0.01832785
-0.02794115
0.06231025
-0.02332187
-0.03774764
0.05727904
-0.02906554
-0.0488883
0.04852774
-0.03537764
-0.0606804
0.03616332
-0.04166782
-0.07194483
0.02083263
-0.04677152
-0.08084018
0.003850278
-0.04892914
-0.08481036
-0.01226012
-0.04616374
-0.08072197
-0.02485672
-0.03866269
-0.06845153
-0.0324341
-0.02898558
-0.05173171
-0.03463913
-0.01948447
-0.03442614
-0.03181214
-0.01145041
-0.01954162
-0.02504021
-0.00512527
-0.008851455
-0.01975489
-0.0005211463
0.002272475
-0.01667886
0.001304842
0.01380562
-0.01438352
0.002437109
0.0225731
-0.01189257
0.003256196
0.0306482
-0.008291985
0.003730561
0.03962919
-0.001314602
0.003541463
0.05042711
0.001085513
0.06351629
0.0264027
0.0002244878
0.005351488
0.02646955
0.0004507034
0.008426009
0.02680116
0.0005751631
0.008755885
0.02781169
0.0006346916
0.00743237
0.03027915
0.0006532713
0.004447211
0.03546191
0.0004377482
-0.0009418138
0.04450801
-0.001556471
-0.008778399
0.05518367
-0.005756305
-0.01344134
0.06232031
-0.009467167
-0.01668704
0.06623952
-0.01300288
-0.02316621
0.06720608
-0.01682396
-0.03179666
0.06502147
-0.02116589
-0.04206526
0.05942366
-0.02608329
-0.05353153
0.05024817
-0.0314329
-0.06550339
0.03761287
-0.03674215
-0.07684524
0.02212287
-0.04103657
-0.08578692
0.005020354
-0.04278511
-0.08980911
-0.01128682
-0.04026587
-0.08577358
-0.0241618
-0.03362954
-0.07336025
-0.03202714
-0.02520972
-0.0563166
-0.03442605
-0.01702071
-0.03834389
-0.03159731
-0.01014218
-0.0223521
-0.02466
-0.004745636
-0.01011443
-0.01913024
-0.0006408068
0.002974258
-0.01577394
0.0009735539
0.01671612
-0.01318861
0.001938638
0.02756867
-0.01047622
0.00260247
0.03755973
-0.006845999
0.00294234
0.04819117
-1.945113e-05
0.002734653
0.06008805
0.0009319943
0.07283051
0.02686256
0.0001392035
0.005814252
0.0269168
0.0002927425
0.009272768
0.02732276
0.0003909787
0.009679045
0.02855219
0.0004572938
0.008116094
0.03140992
0.0005584957
0.004510422
0.03709872
0.0006536389
-0.001927857
0.04691454
-0.00234338
-0.01023258
0.05815165
-0.006243466
-0.01537324
0.06534237
-0.008980301
-0.01920993
0.06903493
-0.01184758
-0.02631431
0.0696356
-0.0151205
-0.03546808
0.06704932
-0.01884305
-0.04611658
0.06109795
-0.02302748
-0.05780417
0.05166924
-0.02754748
-0.06985553
0.03888695
-0.03201853
-0.08119997
0.02331459
-0.03562085
-0.09014467
0.006138049
-0.03701882
-0.09419864
-0.01029778
-0.03471896
-0.09021715
-0.02330879
-0.02888373
-0.07772776
-0.03126154
-0.02165226
-0.06052021
-0.03367755
-0.01471467
-0.04209413
-0.03080492
-0.008928646
-0.02519328
-0.02380626
-0.004366904
-0.01156881
-0.01818994
-0.0007265469
0.003230642
-0.01467011
0.0006588751
0.01877225
-0.01194303
0.001452169
0.03135494
-0.009190112
0.001974484
0.04285177
-0.005699245
0.002217089
0.05462114
0.0008385532
0.002030686
0.06709903
0.0007321428
0.07915058
0.02710161
8.243485e-05
0.006095109
0.02714998
0.0001795545
0.00979655
0.02762832
0.0002475973
0.01023822
0.0290891
0.0003034482
0.008460433
0.03263965
0.0003871342
0.004237388
0.04017051
0.000299514
-0.003842166
0.05133466
-0.00243519
-0.01160414
0.06110531
-0.005873235
-0.01598828
0.06763187
-0.008138301
-0.02132185
0.07099817
-0.0105348
-0.02918493
0.07129305
-0.01331042
-0.03883392
0.06843221
-0.01647435
-0.04980981
0.06227239
-0.02000661
-0.06165099
0.0527254
-0.02379558
-0.07371785
0.03990463
-0.02752904
-0.08502056
0.02432288
-0.03051896
-0.09394305
0.00711735
-0.03160707
-0.09800513
-0.009385754
-0.02952142
-0.09405031
-0.02242147
-0.02447603
-0.08152537
-0.0303338
-0.01840384
-0.06429773
-0.03268963
-0.01266137
-0.04563865
-0.02979707
-0.007879157
-0.02807914
-0.02283873
-0.004038178
-0.01332662
-0.0172575
-0.0007943311
0.002918835
-0.01365555
0.0003745643
0.01992216
-0.01087492
0.00101362
0.03393494
-0.008165635
0.001419974
0.04662235
-0.00486193
0.001598575
0.05921413
0.001394567
0.001451281
0.07203895
0.0005474558
0.08346128
0.02722989
4.634752e-05
0.006253131
0.02728202
0.0001020909
0.01008863
0.02783081
0.0001387944
0.01052537
0.02952761
0.0001529949
0.008543132
0.03368489
0.0001171322
0.003759348
0.04230799
-0.0002330582
-0.005717397
0.05444646
-0.002292868
-0.01292453
0.06340828
-0.00480339
-0.01666422
0.06929282
-0.006919188
-0.02320253
0.07228061
-0.00906528
-0.0317837
0.07231339
-0.01145572
-0.0418873
0.06926365
-0.01413366
-0.05312579
0.06299545
-0.01708461
-0.06506376
0.05342667
-0.02021877
-0.07710723
0.04064574
-0.02328622
-0.08835062
0.02510435
-0.02571695
-0.09724296
0.007895115
-0.02652621
-0.1012875
-0.008631859
-0.02467178
-0.0973109
-0.02160993
-0.02043819
-0.08477396
-0.029402
-0.01550627
-0.06765031
-0.03166916
-0.01088831
-0.04895875
-0.02879267
-0.007003438
-0.0309867
-0.02193907
-0.003768445
-0.01537769
-0.01647895
-0.0008427403
0.002083778
-0.01283669
0.000135866
0.02026514
-0.01004259
0.0006466348
0.03547293
-0.007401442
0.0009628226
0.04912338
-0.004274914
0.001101238
0.06234857
0.001729571
0.001003631
0.07542459
0.0003844181
0.08636552
0.02729855
2.547674e-05
0.006332625
0.02735265
5.680438e-05
0.0102261
0.02793508
7.66195e-05
0.01062679
0.02972107
7.35337e-05
0.008469669
0.03401192
-5.418309e-06
0.003315344
0.04272696
-0.0004742765
-0.00678578
0.05511564
-0.002177292
-0.0142785
0.06423212
-0.004052251
-0.01823267
0.07003279
-0.005833053
-0.02524766
0.07289289
-0.007667184
-0.03424498
0.07279902
-0.009671979
-0.04465172
0.06965403
-0.01188615
-0.05606605
0.06335297
-0.01429668
-0.06805047
0.05382428
-0.0168267
-0.08005009
0.04112919
-0.01927566
-0.09123742
0.02565177
-0.02118108
-0.1001047
0.008445103
-0.02174143
-0.1041067
-0.008076638
-0.02016131
-0.1000573
-0.02093925
-0.01678115
-0.08753157
-0.02856815
-0.01296058
-0.07061433
-0.03074495
-0.009376778
-0.05204591
-0.02791459
-0.006277258
-0.03386051
-0.02118275
-0.003559161
-0.01763174
-0.01590464
-0.0009213864
0.0009272804
-0.01223055
-5.082403e-05
0.01998275
-0.009433656
0.000362128
0.03620033
-0.006854836
0.0006085437
0.05064548
-0.00387007
0.0007198602
0.06438214
0.001955866
0.0006644436
0.07766296
0.0002561799
0.08828523
0.02733933
1.536066e-05
0.006365681
0.02739944
3.726574e-05
0.01027061
0.02800615
5.902137e-05
0.01061667
0.02983735
7.47133e-05
0.008302787
0.03416882
2.863053e-05
0.002871249
0.04288249
-0.0005136108
-0.007658382
0.05533669
-0.002062465
-0.0155106
0.06455355
-0.003527006
-0.01977596
0.07035485
-0.004924146
-0.02712987
0.07314839
-0.006383514
-0.036426
0.0729711
-0.007980371
-0.04705532
0.06976682
-0.009736698
-0.05859405
0.06346156
-0.01163239
-0.07060144
0.05399506
-0.01359456
-0.08255905
0.04140074
-0.01545846
-0.09370835
0.02599417
-0.01686534
-0.1025606
0.008793371
-0.01721577
-0.1065021
-0.007699389
-0.01597622
-0.1023592
-0.02041713
-0.01348842
-0.0898923
-0.0278805
-0.01072419
-0.07325846
-0.02999044
-0.008068481
-0.05490276
-0.02723255
-0.005653185
-0.036627
-0.02065805
-0.0033876
-0.0199372
-0.01549771
-0.0009972266
-0.0006214758
-0.01181194
-0.0001674795
0.01929495
-0.009011403
0.0001649669
0.03635621
-0.006478376
0.0003526515
0.05146098
-0.003597522
0.0004416985
0.06561973
0.002103514
0.0004165391
0.07907944
0.000160827
0.08951092
0.02737254
1.147158e-05
0.006374491
0.0274514
3.289823e-05
0.01026698
0.02810136
6.909348e-05
0.01054975
0.03000314
0.0001332483
0.008083039
0.03440907
0.0001878582
0.00241769
0.04319267
-0.0004706521
-0.008403099
0.05569886
-0.001985986
-0.01649903
0.06489369
-0.003077524
-0.02101836
0.07061501
-0.004072974
-0.0286542
0.07330099
-0.005140793
-0.03820012
0.07302196
-0.00633063
-0.04901613
0.0697498
-0.007643636
-0.06066023
0.06343334
-0.009050002
-0.07269156
0.05402143
-0.01047703
-0.08462275
0.0415243
-0.01178873
-0.09574927
0.0261961
-0.01273102
-0.1045881
0.009021456
-0.01292394
-0.1084733
-0.007420916
-0.01209242
-0.1042907
-0.02000559
-0.01050288
-0.09197246
-0.02735113
-0.00870683
-0.07566552
-0.02944598
-0.006871565
-0.05753363
-0.0267827
-0.005077278
-0.0392039
-0.02038542
-0.003247533
-0.02213733
-0.01521745
-0.0010077
-0.002478751
-0.01154811
-0.0001733008
0.01840831
-0.008738961
6.252549e-05
0.03615695
-0.006231995
0.0001864733
0.05180233
-0.003420868
0.0002512733
0.06630729
0.002196062
0.0002435961
0.07992337
9.357938e-05
0.09025291
0.0274101
9.248945e-06
0.006373376
0.02752788
3.025693e-05
0.01024607
0.0282737
7.491136e-05
0.01046615
0.0303576
0.000191005
0.007832537
0.03500103
0.0004336082
0.001929506
0.0440201
-0.0004323038
-0.00894975
0.05647248
-0.001877882
-0.01710271
0.06545596
-0.002518064
-0.02183982
0.07097222
-0.003132315
-0.02973542
0.07348415
-0.003845191
-0.03950585
0.07306712
-0.004659673
-0.05048682
0.06970559
-0.005560453
-0.06222686
0.0633598
-0.006510441
-0.07428584
0.05398451
-0.007440005
-0.08619698
0.04157552
-0.008241618
-0.09729252
0.02634241
-0.008766771
-0.1061075
0.009233904
-0.008853811
-0.1099891
-0.007148195
-0.008463501
-0.1059164
-0.01966138
-0.007724937
-0.09386878
-0.02698862
-0.006779584
-0.07789042
-0.02915759
-0.005663307
-0.05991809
-0.02664107
-0.004477058
-0.04148988
-0.02036935
-0.003237668
-0.02404154
-0.01510267
-0.001219852
-0.003977235
-0.01144286
5.843473e-05
0.01744476
-0.008596224
6.195408e-05
0.03577828
-0.006087209
9.464992e-05
0.05185644
-0.003314509
0.0001311182
0.06663626
0.002250011
0.0001299466
0.08038293
4.906495e-05
0.09066738
0.02744484
6.380795e-06
0.006369049
0.0276092
2.082811e-05
0.01022234
0.02848575
4.803443e-05
0.01038607
0.03098347
8.03122e-05
0.00755526
0.03655788
8.329332e-05
0.001349658
0.04599555
-0.0002699022
-0.009386604
0.05761826
-0.0009712353
-0.01704871
0.06609525
-0.001595177
-0.02226224
0.07133863
-0.002038768
-0.03044129
0.07366622
-0.002471181
-0.04038699
0.07311838
-0.002955056
-0.05148466
0.06967344
-0.003479664
-0.06328911
0.06329694
-0.004009269
-0.07536053
0.05394955
-0.004480404
-0.08724178
0.04162442
-0.0048158
-0.09828925
0.02650692
-0.004969145
-0.1070768
0.009505907
-0.004984054
-0.1110294
-0.006827673
-0.005021065
-0.1072504
-0.01937035
-0.005038925
-0.09559651
-0.0268229
-0.004799041
-0.07991445
-0.02922479
-0.004271213
-0.06198407
-0.02720779
-0.003522828
-0.04328316
-0.02202534
-0.002467758
-0.02501223
-0.01635212
-0.000735718
-0.005230876
-0.01171255
-0.0001324563
0.01617523
-0.008584385
1.207635e-05
0.03530589
-0.006026269
4.405008e-05
0.05176249
-0.003260542
5.871249e-05
0.06675136
0.002277272
5.934981e-05
0.08059963
2.165641e-05
0.09087173
0.02746866
3.585622e-06
0.006365888
0.02765657
1.256363e-05
0.01020694
0.02857147
3.161598e-05
0.01033759
0.03101921
7.03072e-05
0.007442363
0.03626661
0.0001229489
0.001266908
0.04567867
-0.0001212573
-0.009645018
0.0578714
-0.0005556927
-0.01757222
0.06643264
-0.0007603445
-0.0226021
0.07158269
-0.0009009823
-0.03084223
0.07380215
-0.001058336
-0.04087985
0.07316489
-0.001238862
-0.05204024
0.06966284
-0.001421087
-0.06386937
0.06326873
-0.001567004
-0.07592558
0.05395203
-0.001618686
-0.08775525
0.04171432
-0.001526638
-0.09873138
0.02673809
-0.00133986
-0.1074875
0.009889179
-0.001287425
-0.1115802
-0.006412805
-0.001689639
-0.1082652
-0.01909495
-0.00234125
-0.09711209
-0.02680544
-0.002661708
-0.08168065
-0.02953236
-0.002584703
-0.06365634
-0.02775695
-0.002240349
-0.0446
-0.02216067
-0.001743812
-0.02608746
-0.01638119
-0.0007950316
-0.005884948
-0.01187131
8.337975e-05
0.01556985
-0.008660311
1.986905e-05
0.034908
-0.006024034
5.898136e-06
0.05162075
-0.003243377
1.339736e-05
0.0667578
0.002286989
1.589346e-05
0.08067609
5.303432e-06
0.09095176
0.0274823
1.866714e-07
0.006365569
0.02768728
1.816353e-06
0.01020353
0.02864264
9.163946e-06
0.01031989
0.03116765
5.019643e-05
0.007373191
0.03649327
0.0001607302
0.001168496
0.0460275
-2.472287e-05
-0.009725229
0.05818905
-0.0001177916
-0.01760408
0.06665533
0.0001157619
-0.0226662
0.07170849
0.0002797317
-0.03096423
0.07385971
0.0003651943
-0.04103692
0.07317712
0.000457398
-0.05220468
0.0696505
0.0005868294
-0.06401717
0.06325559
0.0007907872
-0.07603118
0.05397544
0.001119215
-0.0877856
0.04183911
0.00159535
-0.09865641
0.02705603
0.002089698
-0.1073568
0.01044343
0.002228019
-0.1116323
-0.005804591
0.001576478
-0.1089168
-0.01869204
0.0004250676
-0.09835892
-0.02671131
-0.0003748313
-0.08317515
-0.02972547
-0.0007019758
-0.06505878
-0.02830645
-0.0006720304
-0.0456673
-0.02346201
-0.0003779267
-0.02652359
-0.01735307
1.642229e-05
-0.006565109
-0.01210691
-0.0001421075
0.01485722
-0.008702584
-3.239061e-05
0.03462133
-0.006030993
-1.572365e-05
0.051499
-0.003239741
-1.559912e-05
0.06671821
0.002288975
-1.243163e-05
0.08067833
-4.547415e-06
0.09096307
0.02748228
-3.963799e-06
0.006368457
0.02769441
-1.359285e-05
0.01021289
0.02869462
-3.598478e-05
0.01033658
0.03141444
-3.225069e-05
0.007362327
0.03718694
0.0001115579
0.0008786512
0.04698901
-0.0001968373
-0.009588932
0.05855339
0.0004289472
-0.01707354
0.06669398
0.001110918
-0.0225233
0.0716623
0.00146782
-0.03086205
0.07380305
0.001751328
-0.04090103
0.07312736
0.002097665
-0.05202247
0.06960812
0.00252291
-0.06378731
0.06322257
0.003055448
-0.07574675
0.05397292
0.003731417
-0.087416
0.04193389
0.00454454
-0.0981509
0.02736962
0.005305692
-0.1067512
0.01106057
0.005554641
-0.1111994
-0.005073221
0.0047951
-0.1091256
-0.01817261
0.003285792
-0.09922163
-0.02652447
0.002037378
-0.08427606
-0.02977773
0.001274607
-0.06605574
-0.02829191
0.0008459084
-0.04643099
-0.02268143
0.0004527027
-0.02734155
-0.01673056
5.467566e-05
-0.006788265
-0.0120467
0.0001724448
0.01491107
-0.008732479
9.960006e-06
0.03452359
-0.006044822
-3.297379e-05
0.05142737
-0.003245867
-4.315167e-05
0.0666715
0.002286397
-4.051711e-05
0.08064498
-1.447841e-05
0.09094043
0.02746218
-6.979979e-06
0.006374145
0.02765035
-2.485774e-05
0.01023287
0.02859689
-6.607277e-05
0.01039267
0.03143122
-0.0001606526
0.007481541
0.0381657
-0.0002975185
0.0003617538
0.04826767
0.0003579054
-0.00948876
0.05839345
0.001497932
-0.01625075
0.06630488
0.002068308
-0.02231438
0.07138374
0.002519727
-0.03058231
0.07362206
0.003036771
-0.04048608
0.07301559
0.003655871
-0.05151904
0.06953346
0.004386365
-0.06322155
0.06315972
0.005248131
-0.07513249
0.05391858
0.006259351
-0.08673294
0.04193371
0.0073808
-0.09734033
0.02753488
0.008380633
-0.1058219
0.01149643
0.008759528
-0.1103844
-0.004483901
0.007993198
-0.1088388
-0.01772229
0.006232904
-0.09952882
-0.026359
0.004544219
-0.08480282
-0.02984204
0.003303212
-0.0665004
-0.02861565
0.002481968
-0.04663497
-0.02377655
0.001863334
-0.02706486
-0.01755524
0.0008655332
-0.00683834
-0.01221832
-5.547232e-05
0.01471923
-0.008768343
-5.786851e-05
0.03453355
-0.006072424
-6.972236e-05
0.05140921
-0.003263201
-8.828173e-05
0.06661717
0.002278843
-8.350293e-05
0.08057497
-3.066242e-05
0.09088184
0.0274308
-8.843986e-06
0.00638187
0.02757729
-3.038768e-05
0.01026176
0.0284242
-7.950612e-05
0.01047096
0.03104896
-0.0002550365
0.007703744
0.0374909
-0.0007011708
0.0007850938
0.04730923
0.0008556106
-0.009138584
0.05754468
0.002451382
-0.01606792
0.06571506
0.002840201
-0.02194953
0.07099756
0.003426522
-0.03001816
0.0733834
0.004219988
-0.03976902
0.07287601
0.00514268
-0.05069175
0.06944414
0.006203438
-0.06232726
0.06307546
0.00741431
-0.07420656
0.05381068
0.008774196
-0.0857782
0.04181689
0.01020781
-0.09631527
0.02748911
0.01144615
-0.1047135
0.01162506
0.0119673
-0.1093319
-0.004208601
0.01122985
-0.1081217
-0.01749419
0.009255255
-0.09924899
-0.02629058
0.007096467
-0.08469265
-0.02986215
0.005303062
-0.06633271
-0.02844509
0.003974855
-0.04638007
-0.02283552
0.002825037
-0.02709915
-0.01686202
0.0009628832
-0.006380097
-0.01210381
-1.68541e-05
0.01533196
-0.008801697
-0.0001036654
0.03471025
-0.006115887
-0.000139617
0.05141198
-0.003296474
-0.0001652017
0.06652176
0.002262841
-0.0001545427
0.08043302
-5.822814e-05
0.09075578
0.02739247
-9.654329e-06
0.006389723
0.02748269
-2.694001e-05
0.01029462
0.02816826
-5.415744e-05
0.01056452
0.030117
-0.0001062506
0.00803794
0.03442544
-0.0001293381
0.002203713
0.04335145
0.0005522283
-0.008571419
0.0558774
0.002038432
-0.01675722
0.06496055
0.003116414
-0.02145708
0.07056022
0.004169129
-0.02915332
0.07313312
0.005315796
-0.03872169
0.0727388
0.006589038
-0.04951577
0.06935931
0.008016199
-0.06108529
0.06298284
0.009611081
-0.07295523
0.05366003
0.01135391
-0.0845438
0.04159191
0.01313189
-0.09507709
0.02723451
0.01463336
-0.1034438
0.01143044
0.01530625
-0.10808
-0.004296463
0.01457955
-0.1070238
-0.01755101
0.01235364
-0.0984021
-0.02636367
0.009646702
-0.08394418
-0.02985043
0.007177091
-0.0655738
-0.0281229
0.0052018
-0.04567438
-0.02206935
0.003447325
-0.02670889
-0.01632023
0.001036784
-0.005791157
-0.01195889
1.482482e-05
0.01610361
-0.008823099
-0.0001550753
0.03498512
-0.006183477
-0.0002407516
0.05138425
-0.003354324
-0.0002847056
0.06632137
0.002232718
-0.0002651974
0.08015367
-0.0001013875
0.09050586
0.02736141
-1.369369e-05
0.006394303
0.02742156
-3.154921e-05
0.01032373
0.02803552
-4.441484e-05
0.01065776
0.02987188
-4.2635e-05
0.008276039
0.03416569
3.551703e-05
0.002716362
0.04286135
0.0005290199
-0.007997064
0.05532921
0.002006588
-0.01603178
0.06452577
0.003471393
-0.0204429
0.07025683
0.004916971
-0.02791895
0.07294179
0.006423571
-0.03729631
0.07262984
0.008065358
-0.0479565
0.06928462
0.009887443
-0.05946559
0.06288031
0.01190399
-0.07134874
0.05346567
0.01407609
-0.08299714
0.04126599
0.01624825
-0.0935872
0.02679143
0.0180535
-0.1019712
0.01094048
0.01888716
-0.1066018
-0.004742248
0.01812425
-0.1055507
-0.0179365
0.01556446
-0.09699368
-0.02667742
0.01220182
-0.08252975
-0.02998532
0.008915336
-0.06414928
-0.02790589
0.006148771
-0.04439004
-0.02147582
0.003728508
-0.02576671
-0.01588487
0.001058419
-0.004904248
-0.01189324
8.105866e-05
0.01693679
-0.008908495
-0.000221725
0.03525658
-0.006311175
-0.0003866003
0.05123533
-0.003456566
-0.000462461
0.06592254
0.002178176
-0.0004295212
0.07964249
-0.0001651572
0.09005288
0.02733277
-2.485393e-05
0.006387307
0.02738007
-5.462236e-05
0.01033133
0.0279644
-7.106065e-05
0.01072786
0.02976194
-6.193126e-05
0.008487419
0.03405006
2.478384e-05
0.00315575
0.04270858
0.0004559115
-0.00722368
0.05510382
0.002097682
-0.01496217
0.06427322
0.003976119
-0.01911409
0.07002938
0.00578913
-0.0263334
0.07276851
0.007635075
-0.03549261
0.07250856
0.009643547
-0.04600249
0.06918092
0.01187912
-0.05744838
0.06273341
0.0143545
-0.06935839
0.05320305
0.01700843
-0.0810987
0.04083062
0.01963477
-0.0917914
0.02617363
0.02179386
-0.1002304
0.01018883
0.02280075
-0.1048394
-0.005520187
0.02194729
-0.1036744
-0.01867432
0.01896086
-0.09501258
-0.02734149
0.01484538
-0.08041434
-0.03051783
0.01065365
-0.06195965
-0.02823998
0.007047418
-0.04232247
-0.02164659
0.004011077
-0.02405147
-0.01604682
0.001079645
-0.003565121
-0.01211557
5.314878e-05
0.01770293
-0.009163461
-0.0003733843
0.0353807
-0.006551527
-0.0006161688
0.05083819
-0.003632273
-0.0007240171
0.06519457
0.002084752
-0.0006663743
0.07876797
-0.0002562129
0.0892882
0.02729381
-4.674945e-05
0.006354161
0.02733701
-0.0001034033
0.0102864
0.02790092
-0.0001413996
0.01073599
0.02965847
-0.0001582214
0.008648797
0.03390917
-0.0001238804
0.003593364
0.04256171
0.0002091945
-0.006353906
0.05488589
0.002186612
-0.01372931
0.06395167
0.004676836
-0.01758608
0.06968214
0.00685064
-0.02448897
0.07245792
0.008994988
-0.03337235
0.07225062
0.01135749
-0.043686
0.06894857
0.01402331
-0.05503988
0.06246476
0.01699868
-0.06696807
0.05281794
0.02019479
-0.07881208
0.0402581
0.02334408
-0.08963351
0.0253848
0.02591414
-0.09815025
0.00921155
0.02711156
-0.1027236
-0.006573574
0.02611429
-0.1013531
-0.01970645
0.02260895
-0.0924533
-0.02829972
0.01765143
-0.07762275
-0.03136024
0.01248666
-0.05907509
-0.02891922
0.008001665
-0.03962725
-0.0221213
0.004333578
-0.02187027
-0.0164652
0.001077856
-0.001952732
-0.01253265
-8.029549e-05
0.01835965
-0.00958427
-0.0006241258
0.03521408
-0.006928026
-0.0009480623
0.05001522
-0.003905831
-0.00108997
0.06395094
0.001936259
-0.0009948933
0.0773461
-0.0003803153
0.08805849
0.02722476
-8.356875e-05
0.006272823
0.02726593
-0.0001830014
0.01014375
0.0277954
-0.000254584
0.01062571
0.0294628
-0.0003152647
0.008710655
0.03357153
-0.0003794552
0.004026317
0.0420777
-0.0002270871
-0.00531871
0.05414079
0.002246343
-0.01242715
0.06305955
0.005550184
-0.01609145
0.06885551
0.007998411
-0.02257286
0.0717498
0.01042255
-0.03105061
0.07166178
0.01315804
-0.04107039
0.06843976
0.01629588
-0.05226432
0.06196409
0.01983114
-0.06417139
0.05223471
0.02364476
-0.07610494
0.03950792
0.02739829
-0.08705924
0.02442102
0.03044572
-0.09566018
0.008042675
0.03185749
-0.1001825
-0.007836595
0.030667
-0.09853781
-0.02095023
0.0265551
-0.08931121
-0.02946141
0.02067085
-0.07420002
-0.03240549
0.01446702
-0.05560072
-0.02980275
0.009046781
-0.03648279
-0.02276375
0.004679053
-0.01946531
-0.01706513
0.001009967
-0.0003171474
-0.01313852
-0.0002936355
0.01872002
-0.01019369
-0.0009688231
0.03454987
-0.007475892
-0.001388841
0.04853474
-0.004312084
-0.001575367
0.06194546
0.001709743
-0.001434122
0.07512731
-0.0005400529
0.08615349
0.02709479
-0.0001405232
0.006111471
0.02713128
-0.0002967108
0.009842545
0.02758939
-0.0003989939
0.01032295
0.02903381
-0.0004744454
0.008607
0.03266405
-0.0005716852
0.004460633
0.04043101
-0.0005409947
-0.003808455
0.05171317
0.002139422
-0.01121464
0.06086677
0.005993343
-0.01516245
0.06711138
0.008813397
-0.02083385
0.07035723
0.01167632
-0.02863834
0.07053203
0.01491136
-0.03819785
0.06749713
0.01861496
-0.04913199
0.0611162
0.02280238
-0.06095524
0.05137636
0.02733237
-0.07294268
0.03854064
0.03178862
-0.08401303
0.02328096
0.03539262
-0.09268982
0.006719661
0.03705164
-0.09714446
-0.009237498
0.03562378
-0.09517897
-0.02231014
0.03082188
-0.0855833
-0.03072033
0.02392898
-0.07019848
-0.03354946
0.01662147
-0.05164791
-0.03081176
0.01020234
-0.03305475
-0.02360491
0.005062378
-0.01702864
-0.01782743
0.0009307456
0.0008578534
-0.01394679
-0.0005641814
0.01855945
-0.01102246
-0.001393999
0.03313497
-0.008239971
-0.001933175
0.04611536
-0.004899905
-0.002186306
0.05886697
0.001375551
-0.002008814
0.07178207
-0.0007222116
0.08327916
0.02685456
-0.0002255691
0.005826497
0.02689628
-0.0004537943
0.009307591
0.02727895
-0.0005809779
0.009743782
0.02847285
-0.0006448556
0.008236094
0.03151978
-0.0007296122
0.004684912
0.03823173
-0.0008534632
-0.002226176
0.04849738
0.001949715
-0.009961702
0.05803505
0.006067999
-0.01424502
0.06472293
0.009346493
-0.01884641
0.06831513
0.01275209
-0.02593002
0.06879846
0.01656579
-0.03498836
0.06603194
0.02091159
-0.04560708
0.05984425
0.02584653
-0.05729148
0.05019355
0.03120695
-0.06928734
0.03733835
0.03648402
-0.08044096
0.02197881
0.040741
-0.08917195
0.005290297
0.04269167
-0.0935416
-0.01069487
0.04098479
-0.09123255
-0.02367415
0.03540534
-0.08127171
-0.03194026
0.02741676
-0.06567695
-0.03464685
0.01894098
-0.04732849
-0.03181844
0.01146233
-0.02949369
-0.02454372
0.005478525
-0.01473525
-0.01871105
0.000863752
0.001465072
-0.01494123
-0.000868957
0.01766128
-0.0120831
-0.001874269
0.03071638
-0.009262649
-0.002557216
0.04245175
-0.005737469
-0.002908911
0.05434791
0.0008172703
-0.002710677
0.06689723
-0.000922432
0.07900781
0.02639553
-0.0003460368
0.005359599
0.02645241
-0.0006580989
0.008449482
0.02676344
-0.0008035119
0.008800304
0.02773541
-0.0008582993
0.007512575
0.03014287
-0.0009134047
0.004589802
0.03515813
-0.0009224222
-0.0006870993
0.04413544
0.001120608
-0.008476802
0.05467217
0.005715535
-0.01319116
0.06171384
0.009780302
-0.01641544
0.06553176
0.0137307
-0.02283542
0.06635468
0.01806509
-0.03142723
0.06396237
0.02308226
-0.04169463
0.05810318
0.02885986
-0.05317859
0.04867581
0.03518962
-0.06511838
0.03591876
0.04143774
-0.07630181
0.02055555
0.04647173
-0.08505175
0.003818263
0.04877393
-0.08931962
-0.01211838
0.04674203
-0.0866696
-0.0249161
0.04027496
-0.07639342
-0.03294964
0.03107545
-0.06070334
-0.03548531
0.02135348
-0.042747
-0.03260084
0.01276274
-0.02590875
-0.0253555
0.005863665
-0.01268268
-0.01960365
0.00075152
0.001595111
-0.01602271
-0.001199054
0.01587901
-0.01331964
-0.002374337
0.02710464
-0.01054562
-0.003213245
0.03727437
-0.006882884
-0.003699391
0.0479972
-3.859638e-05
-0.003519793
0.0599453
-0.001077049
0.07273035
0.0254797
-0.0004979886
0.004641551
0.02553123
-0.0008839267
0.007179556
0.02572164
-0.001023737
0.007420197
0.02636956
-0.001047349
0.006406826
0.02808774
-0.001063481
0.004219536
0.031938
-0.001087848
0.0003409847
0.0397701
0.0003536836
-0.006927746
0.05017475
0.005090978
-0.01136065
0.05734795
0.01001862
-0.01379778
0.06159336
0.0143276
-0.01960559
0.06300552
0.01911919
-0.02766289
0.06123178
0.02488108
-0.03749342
0.05591371
0.03166492
-0.0486738
0.04688255
0.03917442
-0.06045748
0.03435713
0.04660706
-0.07159197
0.0190898
0.05258934
-0.08031219
0.002383021
0.0553274
-0.08446412
-0.01341936
0.05290949
-0.0815024
-0.02591191
0.04538446
-0.07100053
-0.03355308
0.03478054
-0.0553701
-0.03577525
0.0236814
-0.03800633
-0.0328062
0.01393457
-0.02235437
-0.02569118
0.006061195
-0.01081989
-0.02018748
0.0005082517
0.001297892
-0.01690608
-0.001570368
0.01323085
-0.01450465
-0.002858222
0.02227301
-0.01195752
-0.003830358
0.03046834
-0.008326776
-0.004477783
0.03950748
-0.001334846
-0.004352342
0.05033902
-0.0009785794
0.0634558
0.02360524
-0.0006516059
0.00361309
0.02359288
-0.001062347
0.005456371
0.02359518
-0.001163157
0.00559734
0.02386322
-0.001145925
0.004918997
0.02487165
-0.001134164
0.003549906
0.02757498
-0.001203457
0.0009217395
0.03408515
-0.0007051482
-0.004808128
0.04374657
0.004132614
-0.008767698
0.05116005
0.009824528
-0.01117605
0.05635549
0.01393075
-0.0164192
0.05881376
0.01919898
-0.0238834
0.0579984
0.02594629
-0.03316705
0.05346174
0.03404886
-0.04391462
0.04498953
0.04306874
-0.05542288
0.03280374
0.05198733
-0.06641853