/*--------------------------------*- C++ -*----------------------------------*\
| =========                 |                                                 |
| \\      /  F ield         | OpenFOAM: The Open Source CFD Toolbox           |
|  \\    /   O peration     | Version:  2506                                  |
|   \\  /    A nd           | Website:  www.openfoam.com                      |
|    \\/     M anipulation  |                                                 |
\*---------------------------------------------------------------------------*/
FoamFile
{
    version     2.0;
    format      ascii;
    arch        "LSB;label=32;scalar=64";
    class       volScalarField;
    location    "500/solid";
    object      damage;
}
// * * * * * * * * * * * * * * * * * * * * * * * * * * * * * * * * * * * * * //

dimensions      [0 0 0 0 0 0 0];

internalField   nonuniform List<scalar> 
2304
(
0.1963068
0.1980051
0.1981373
0.1981434
0.1981167
0.1978743
0.1978507
0.1996184
0.1997518
0.1997636
0.1997485
0.199529
0.1979689
0.199725
0.1998615
0.1998752
0.1998607
0.1996425
0.1979788
0.1997326
0.1998699
0.1998841
0.1998696
0.1996516
0.1979588
0.1997165
0.1998523
0.1998658
0.1998512
0.1996329
0.1977203
0.1994927
0.199625
0.1996359
0.19962
0.1993987
0.1971019
0.1986597
0.1985335
0.2002766
0.1987997
0.1989146
0.2004118
0.2005203
0.1989226
0.1989281
0.2005277
0.2005347
0.1989264
0.1989117
0.2005345
0.2005275
0.198901
0.1987909
0.2005207
0.2004282
0.1986666
0.1972741
0.2003125
0.1987533
0.1986588
0.2003948
0.1987638
0.2004867
0.2005296
0.2006382
0.2006211
0.2007303
0.2006457
0.2006531
0.2007381
0.2007462
0.2006531
0.2006466
0.2007464
0.2007402
0.20064
0.2005487
0.2007337
0.2006431
0.2004338
0.1988833
0.2005293
0.1989944
0.1987725
0.200493
0.1987817
0.2004991
0.2006274
0.2007369
0.2006335
0.2007433
0.2007448
0.200753
0.2007513
0.2007597
0.2007532
0.200747
0.20076
0.2007538
0.2007405
0.2006499
0.2007472
0.2006565
0.2005362
0.1990042
0.200543
0.1990148
0.1987816
0.2004991
0.1987721
0.2004928
0.2006334
0.2007432
0.2006272
0.2007367
0.2007512
0.2007597
0.2007445
0.2007528
0.2007599
0.2007537
0.200753
0.2007468
0.2007471
0.2006565
0.2007402
0.2006496
0.200543
0.1990147
0.2005359
0.1990034
0.1987633
0.2004864
0.1986576
0.2003941
0.2006208
0.20073
0.200529
0.2006375
0.2007378
0.2007459
0.200645
0.2006524
0.2007461
0.20074
0.2006524
0.2006459
0.2007334
0.2006428
0.2006393
0.200548
0.2005289
0.1989934
0.2004331
0.1988815
0.1985319
0.2002755
0.1970956
0.1986544
0.2004108
0.2005193
0.1987944
0.1989093
0.2005267
0.2005337
0.1989173
0.1989228
0.2005335
0.2005265
0.1989212
0.1989066
0.2005197
0.2004272
0.1988959
0.1987859
0.2003114
0.198751
0.1986615
0.1972685
0.1978585
0.1977221
0.1993474
0.1981278
0.1994939
0.1996164
0.1981448
0.1996262
0.1996369
0.1981283
0.1996371
0.1996295
0.1980024
0.1996212
0.1995219
0.1964889
0.1994
0.1979673
0.1994718
0.1979594
0.1995701
0.1997417
0.1997169
0.199842
0.1997632
0.1998527
0.1998654
0.1997567
0.1998662
0.1998597
0.1996502
0.1998516
0.1997537
0.1981035
0.1996334
0.198222
0.1995781
0.1979789
0.1995857
0.1998507
0.1997327
0.199859
0.1998744
0.19987
0.1998833
0.1998688
0.1998842
0.1998778
0.1997628
0.1998696
0.1997717
0.1982337
0.1996516
0.1982463
0.1995857
0.1979685
0.1995779
0.1998589
0.1997247
0.1998504
0.1998832
0.1998612
0.1998741
0.1998777
0.1998749
0.1998685
0.1997716
0.1998604
0.1997625
0.1982462
0.1996422
0.1982329
0.1995697
0.1978494
0.1994709
0.1998416
0.1996175
0.1997409
0.199865
0.199751
0.1997624
0.1998593
0.1997628
0.1997558
0.1997533
0.1997477
0.1996494
0.1982209
0.1995281
0.1981015
0.1993462
0.1963003
0.1978527
0.1996152
0.1979993
0.1981221
0.1996357
0.1981315
0.1981391
0.1996283
0.1981376
0.1981227
0.1995207
0.1981111
0.1979969
0.1979649
0.1978687
0.1964829
0.1983716
0.1967852
0.1975744
0.1975216
0.1994065
0.1985266
0.1985958
0.1993388
0.1994641
0.1986526
0.198656
0.1994608
0.1994583
0.1986527
0.1986481
0.199462
0.199416
0.1986199
0.1985998
0.1994341
0.1989401
0.1983689
0.1981154
0.1991929
0.199299
0.1983747
0.1992376
0.1984381
0.2003243
0.2001981
0.2002647
0.2002576
0.2003808
0.2003175
0.2003209
0.2003774
0.2003779
0.2003205
0.2003178
0.2003806
0.2003417
0.2002978
0.2002815
0.2003579
0.1998794
0.2000666
0.1998181
0.2001271
0.1993596
0.1984976
0.1993543
0.1985035
0.2003809
0.2003093
0.2003762
0.200314
0.2004384
0.2004299
0.2004335
0.2004348
0.2004357
0.2004335
0.2004308
0.2004384
0.2003986
0.2004104
0.2003939
0.2004152
0.1999376
0.2001794
0.1999328
0.2001841
0.1993625
0.1985085
0.199364
0.1985068
0.2003835
0.2003178
0.2003848
0.2003165
0.2004411
0.2004388
0.2004424
0.2004374
0.2004383
0.2004425
0.2004397
0.2004411
0.2004012
0.2004191
0.2004025
0.2004178
0.1999402
0.2001879
0.1999416
0.2001866
0.1993286
0.1984868
0.1993446
0.1984695
0.2003526
0.2003007
0.2003675
0.2002858
0.2004095
0.2004211
0.2004246
0.2004059
0.2004067
0.2004246
0.2004219
0.2004094
0.2003703
0.2004017
0.2003852
0.2003866
0.1999084
0.2001707
0.1999237
0.2001557
0.198853
0.1982432
0.1991091
0.1979868
0.1998847
0.2000719
0.2001386
0.1998178
0.1999412
0.2001914
0.2001947
0.1999379
0.1999369
0.2001941
0.2001913
0.19994
0.1998984
0.2001709
0.2001544
0.1999153
0.1994289
0.1999385
0.1996888
0.19968
0.1970552
0.1970056
0.1978036
0.1980759
0.1987705
0.198841
0.1981422
0.1989015
0.1989065
0.1981404
0.1989093
0.1989073
0.1980986
0.1988878
0.1988718
0.1976247
0.1986557
0.1984078
0.1986564
0.1979124
0.1987155
0.1996893
0.1996757
0.1997469
0.1997577
0.1998102
0.1998163
0.199763
0.1998227
0.1998222
0.1997348
0.199808
0.1997943
0.1992872
0.1995893
0.1993484
0.1987675
0.1979743
0.1987721
0.1997966
0.1997292
0.1998009
0.199868
0.1998661
0.1998727
0.1998749
0.1998801
0.1998797
0.199847
0.1998655
0.1998518
0.1994033
0.1996475
0.1994085
0.1987759
0.1979773
0.1987747
0.1998045
0.1997315
0.1998034
0.1998766
0.1998687
0.1998754
0.1998838
0.1998829
0.1998825
0.1998558
0.1998683
0.1998546
0.1994128
0.1996503
0.1994114
0.1987585
0.1979427
0.1987439
0.199788
0.199703
0.1997743
0.1998587
0.1998382
0.1998445
0.1998654
0.1998512
0.1998508
0.1998375
0.1998366
0.199823
0.1993932
0.1996182
0.1993779
0.198529
0.1974659
0.1982763
0.1995634
0.1992423
0.1993129
0.1996306
0.1993737
0.199379
0.1996351
0.1993832
0.1993819
0.1996061
0.1993654
0.1993507
0.1991554
0.1991401
0.1988948
0.1989085
0.1983824
0.198095
0.1991964
0.1988555
0.1982452
0.1979897
0.1991109
0.1993912
0.199932
0.1996784
0.1996454
0.1988992
0.1972583
0.1978737
0.1978234
0.1980361
0.1979858
0.1987261
0.1994362
0.1988222
0.198381
0.1995412
0.1985439
0.1997135
0.199263
0.1993943
0.1986968
0.1982839
0.1994699
0.1984467
0.1996444
0.1992205
0.1999285
0.2004499
0.2000308
0.2000018
0.2002035
0.2001763
0.1997546
0.1994384
0.198645
0.198629
0.1994536
0.1998869
0.2000735
0.19982
0.2001401
0.1999181
0.2001858
0.1999329
0.2001711
0.1999141
0.1989615
0.1988668
0.1996785
0.199028
0.1998497
0.1997438
0.1999441
0.1990746
0.198899
0.1997893
0.1990595
0.1999583
0.1997746
0.2004014
0.2005837
0.2001668
0.2004759
0.2003381
0.2006465
0.2002312
0.2004307
0.2006891
0.2002758
0.2005059
0.2004444
0.2006755
0.2002614
0.1994651
0.1986557
0.1986568
0.1994643
0.1999433
0.2001928
0.19994
0.2001962
0.1999444
0.2001972
0.199944
0.2001974
0.1999683
0.1990819
0.1989266
0.1997968
0.1990852
0.1999651
0.1998006
0.1999695
0.1990856
0.1989282
0.1998027
0.1990863
0.1999693
0.1998023
0.2004542
0.2006957
0.2002832
0.2005317
0.200451
0.2006989
0.200287
0.2004556
0.2007007
0.2002896
0.2005338
0.2004557
0.2007004
0.200289
0.199453
0.1986329
0.1986417
0.1994455
0.1999389
0.2001955
0.1999421
0.2001927
0.1999343
0.2001821
0.1999276
0.2001884
0.1999654
0.1990833
0.1989233
0.1998017
0.1990797
0.1999679
0.1997997
0.1999615
0.1990669
0.1989186
0.1997912
0.1990744
0.1999558
0.1997964
0.2004528
0.2007
0.2002892
0.2005335
0.2004547
0.2006984
0.2002878
0.2004497
0.2006912
0.2002809
0.2005313
0.2004449
0.2006956
0.2002852
0.1993834
0.1984991
0.1985648
0.1993202
0.1999004
0.2001723
0.1999173
0.2001558
0.1998692
0.2000644
0.1998076
0.2001253
0.1999314
0.1990556
0.1988838
0.1997826
0.1990378
0.1999467
0.1997679
0.1999025
0.1989434
0.1988523
0.1996822
0.1990056
0.1998441
0.1997397
0.2004231
0.2006839
0.2002736
0.2005081
0.200437
0.2006706
0.2002603
0.2003959
0.2005889
0.2001784
0.2004825
0.2003395
0.2006442
0.2002338
0.1984658
0.1969297
0.197655
0.1976869
0.1994312
0.1999399
0.1996821
0.1996905
0.19896
0.1984328
0.1981697
0.1992215
0.1994781
0.1988182
0.1984217
0.1995623
0.1985721
0.1997234
0.1993185
0.1989961
0.1974116
0.1979734
0.1980188
0.1981214
0.1981595
0.1988391
0.199979
0.2004722
0.2000612
0.2000738
0.2002214
0.2002318
0.1998203
0.1995005
0.1988918
0.1984955
0.1996013
0.1986349
0.1997563
0.1993447
0.1998309
0.2000568
0.1997708
0.2001165
0.1993294
0.1984875
0.1984705
0.1993453
0.1998603
0.2001602
0.2001455
0.1998754
0.1998237
0.1988224
0.1995912
0.198719
0.1997661
0.1988832
0.1996482
0.2003518
0.2005684
0.2001209
0.2004494
0.2002959
0.2006236
0.2001763
0.1998512
0.198929
0.1987487
0.1996886
0.1989134
0.199865
0.1996753
0.2003781
0.2006617
0.2004747
0.2002145
0.2006493
0.2003909
0.2002021
0.2003554
0.2003104
0.2002957
0.2003702
0.2003533
0.2003012
0.2002865
0.2003681
0.2003846
0.2004144
0.2003994
0.2003994
0.2008193
0.2007017
0.2005936
0.200584
0.2007644
0.2007567
0.200648
0.2008483
0.2008069
0.2006237
0.2006928
0.2007934
0.2008619
0.2006782
0.2008448
0.2007945
0.2006092
0.2006852
0.2007822
0.2008571
0.2006732
0.2008739
0.2009
0.2007182
0.2007155
0.2008876
0.2008863
0.2007035
0.2003822
0.2003221
0.2003222
0.2003821
0.2004101
0.2004216
0.2004066
0.2004252
0.2004116
0.2004266
0.2004115
0.2004266
0.200872
0.2008135
0.2006498
0.2007004
0.2008169
0.2008686
0.2007046
0.2008736
0.2008189
0.200652
0.2007081
0.2008185
0.2008741
0.200707
0.2008978
0.2009068
0.2007259
0.2007425
0.2008943
0.2009103
0.2007302
0.2008995
0.2009126
0.2007338
0.200745
0.2009
0.2009121
0.2007326
0.2003738
0.2003075
0.2003136
0.2003677
0.2004073
0.2004251
0.20041
0.2004224
0.2004032
0.200412
0.200397
0.2004183
0.2008721
0.2008183
0.2006522
0.2007082
0.2008168
0.2008736
0.2007074
0.2008696
0.20081
0.2006502
0.2007019
0.2008142
0.2008654
0.2007054
0.2008981
0.2009121
0.200734
0.2007457
0.2008995
0.2009107
0.2007332
0.2008955
0.2009039
0.2007278
0.2007438
0.2008914
0.2009081
0.2007313
0.2003113
0.2001906
0.2002511
0.2002509
0.2003709
0.2004022
0.2003872
0.2003857
0.2003405
0.2002948
0.20028
0.2003553
0.2008453
0.2008028
0.2006277
0.2006954
0.2007898
0.2008583
0.2006832
0.2008194
0.2007089
0.2006024
0.2006046
0.2007637
0.2007648
0.200658
0.2008712
0.2008968
0.2007212
0.2007215
0.2008842
0.2008838
0.200709
0.2008453
0.2008033
0.2006306
0.2006964
0.2007908
0.2008578
0.2006839
0.1994139
0.1985657
0.1993512
0.1986308
0.1999092
0.2001713
0.2001565
0.1999244
0.1994449
0.1986815
0.198664
0.199461
0.2004114
0.200593
0.2001967
0.2004903
0.200354
0.2006494
0.2002542
0.1999402
0.1990207
0.1997268
0.1989464
0.199881
0.1990832
0.1997863
0.2004383
0.2006884
0.2005166
0.2002945
0.2006757
0.2004515
0.2002812
0.1999686
0.1991304
0.1989779
0.1998293
0.1991143
0.1999829
0.1998149
0.1998886
0.2001683
0.1998837
0.200173
0.1993627
0.1985086
0.1985071
0.1993641
0.1998914
0.2001769
0.2001757
0.1998927
0.1998767
0.1989379
0.1996959
0.1987775
0.1998725
0.1989431
0.1996999
0.2004014
0.2006682
0.2002211
0.2004964
0.2003976
0.2006718
0.2002247
0.1998791
0.1989474
0.1987804
0.1997032
0.1989461
0.1998802
0.1997022
0.2004035
0.2006746
0.2004983
0.2002275
0.2006737
0.2004044
0.2002266
0.2004124
0.2004226
0.2004076
0.2004274
0.2003836
0.2003179
0.2003167
0.2003849
0.2004151
0.2004315
0.2004302
0.2004164
0.2008671
0.2008009
0.2006915
0.2006308
0.2008635
0.2008044
0.200695
0.2008963
0.2009066
0.200722
0.2007405
0.2008927
0.2009102
0.2007255
0.200869
0.2008072
0.2006327
0.2006977
0.2008063
0.2008699
0.2006969
0.2008983
0.2009131
0.2007424
0.2007283
0.2009122
0.2008992
0.2007274
0.2004399
0.200435
0.200435
0.2004399
0.2004412
0.2004388
0.2004376
0.2004425
0.2004427
0.200444
0.2004427
0.200444
0.2009206
0.2009134
0.2007492
0.2007484
0.2009169
0.2009171
0.2007528
0.2009224
0.2009193
0.2007517
0.2007567
0.2009187
0.200923
0.2007554
0.2009227
0.20092
0.2007504
0.2007558
0.2009191
0.2009236
0.2007549
0.2009245
0.200926
0.2007588
0.2007584
0.2009251
0.2009254
0.2007575
0.2004314
0.2004203
0.2004266
0.2004251
0.2004385
0.2004425
0.2004412
0.2004398
0.2004343
0.2004292
0.2004279
0.2004355
0.2009211
0.2009188
0.2007525
0.200757
0.2009174
0.2009225
0.2007562
0.2009185
0.2009106
0.2007506
0.2007508
0.2009148
0.2009143
0.2007543
0.2009232
0.2009255
0.2007591
0.2007593
0.2009246
0.2009241
0.2007583
0.2009206
0.2009173
0.2007529
0.2007573
0.2009164
0.2009215
0.2007564
0.200368
0.2003028
0.2003633
0.2003075
0.2004014
0.2004192
0.2004179
0.2004026
0.2003707
0.2003113
0.2003101
0.2003719
0.200894
0.2009034
0.2007282
0.2007442
0.2008903
0.2009071
0.2007319
0.2008679
0.2008099
0.2007031
0.2006536
0.2008643
0.2008135
0.2007068
0.200896
0.20091
0.2007463
0.2007349
0.2009091
0.2008969
0.200734
0.20087
0.2008164
0.2006556
0.2007097
0.2008156
0.2008709
0.2007088
0.1994753
0.1986917
0.19947
0.1986977
0.1999404
0.200188
0.2001868
0.1999417
0.1994784
0.1987029
0.1987013
0.1994798
0.2004625
0.200695
0.2003018
0.20054
0.2004585
0.2006987
0.2003059
0.1999952
0.1991397
0.1998375
0.19901
0.1999907
0.1991452
0.1998421
0.2004647
0.2007017
0.2005421
0.2003092
0.2007008
0.2004657
0.2003081
0.1999977
0.1991498
0.1990134
0.199846
0.1991484
0.1999988
0.1998448
0.1998912
0.2001769
0.1998926
0.2001756
0.1993593
0.198497
0.1985031
0.1993538
0.1998883
0.2001679
0.2001727
0.1998833
0.199879
0.1989473
0.1997032
0.1987803
0.1998801
0.1989459
0.1997021
0.2004034
0.2006746
0.2002275
0.2004982
0.2004044
0.2006736
0.2002265
0.1998765
0.1989374
0.1987773
0.1996956
0.1989428
0.1998721
0.1996997
0.2004012
0.2006679
0.2004963
0.2002208
0.2006716
0.2003973
0.2002245
0.2004149
0.2004314
0.2004163
0.2004301
0.2003806
0.2003089
0.2003137
0.2003758
0.2004121
0.2004222
0.2004272
0.2004072
0.2008689
0.2008072
0.2006977
0.2006326
0.2008699
0.2008062
0.2006968
0.2008982
0.2009131
0.2007282
0.2007423
0.2008992
0.2009121
0.2007273
0.2008669
0.2008006
0.2006306
0.2006913
0.2008042
0.2008633
0.2006948
0.2008961
0.2009063
0.2007403
0.2007218
0.20091
0.2008925
0.2007253
0.2004426
0.200444
0.200444
0.2004426
0.2004381
0.2004295
0.2004345
0.2004331
0.2004396
0.2004346
0.2004396
0.2004346
0.2009226
0.20092
0.2007557
0.2007503
0.2009236
0.200919
0.2007548
0.2009244
0.200926
0.2007584
0.2007587
0.2009254
0.200925
0.2007574
0.2009205
0.2009131
0.2007482
0.200749
0.2009169
0.2009167
0.2007527
0.2009222
0.200919
0.2007566
0.2007515
0.2009228
0.2009185
0.2007553
0.2004341
0.2004291
0.2004355
0.2004278
0.2004354
0.2004331
0.2004381
0.2004304
0.2004312
0.2004199
0.2004249
0.2004262
0.2009231
0.2009255
0.2007592
0.200759
0.2009241
0.2009245
0.2007582
0.2009205
0.2009172
0.2007573
0.2007528
0.2009215
0.2009163
0.2007563
0.2009209
0.2009185
0.2007568
0.2007523
0.2009224
0.2009171
0.2007561
0.2009184
0.2009103
0.2007506
0.2007504
0.2009141
0.2009146
0.2007542
0.2003706
0.2003113
0.2003719
0.20031
0.2003984
0.20041
0.2004149
0.2003935
0.2003677
0.2003024
0.2003072
0.200363
0.2008959
0.20091
0.2007348
0.2007462
0.2008969
0.200909
0.2007339
0.2008699
0.2008164
0.2007097
0.2006556
0.2008708
0.2008154
0.2007087
0.2008938
0.2009032
0.200744
0.200728
0.2009069
0.2008901
0.2007318
0.2008678
0.2008096
0.2006534
0.2007029
0.2008134
0.2008641
0.2007066
0.1994782
0.1987028
0.1994797
0.1987009
0.1999373
0.2001789
0.2001838
0.1999323
0.1994749
0.1986908
0.1986971
0.1994694
0.2004645
0.2007017
0.2003091
0.200542
0.2004656
0.2007007
0.200308
0.1999975
0.1991496
0.1998459
0.199013
0.1999988
0.199148
0.1998446
0.2004622
0.2006947
0.2005398
0.2003014
0.2006985
0.2004582
0.2003056
0.1999948
0.1991389
0.1990094
0.199837
0.1991446
0.1999902
0.1998418
0.1998596
0.2001596
0.1998748
0.2001448
0.199298
0.1983731
0.198437
0.1992363
0.19983
0.2000557
0.2001156
0.1997696
0.1998506
0.1989283
0.1996882
0.198748
0.1998645
0.1989126
0.1996747
0.2003776
0.2006614
0.2002141
0.2004743
0.2003905
0.2006489
0.2002017
0.1998229
0.1988212
0.1987181
0.1995903
0.1988823
0.1997651
0.1996475
0.2003512
0.2005676
0.2004489
0.2001202
0.200623
0.200295
0.2001757
0.2003839
0.2004138
0.2003989
0.2003988
0.2003235
0.2001969
0.2002568
0.2002636
0.2003546
0.2003093
0.2003694
0.2002946
0.2008444
0.2007941
0.2006849
0.2006088
0.2008568
0.2007817
0.2006728
0.2008734
0.2008997
0.2007152
0.2007178
0.2008859
0.2008871
0.2007031
0.2008187
0.200701
0.2005835
0.200593
0.2007561
0.2007636
0.2006475
0.2008477
0.2008062
0.2006923
0.200623
0.2008614
0.2007926
0.2006777
0.2004109
0.2004261
0.2004261
0.2004109
0.20038
0.2003164
0.2003765
0.2003198
0.2003814
0.200321
0.2003813
0.2003212
0.2008973
0.2009065
0.2007422
0.2007255
0.20091
0.2008939
0.2007298
0.200899
0.2009123
0.2007447
0.2007334
0.2009117
0.2008996
0.2007322
0.2008714
0.2008128
0.2006999
0.2006491
0.200868
0.2008161
0.2007041
0.2008731
0.2008181
0.2007076
0.2006514
0.2008736
0.2008177
0.2007065
0.2004026
0.2004115
0.2004178
0.2003964
0.2003771
0.2003195
0.2003798
0.2003168
0.200373
0.2003065
0.2003669
0.2003126
0.2008976
0.2009118
0.2007454
0.2007336
0.2009104
0.2008991
0.2007328
0.2008951
0.2009036
0.2007435
0.2007274
0.2009078
0.2008909
0.2007309
0.2008716
0.2008175
0.2007077
0.2006515
0.200873
0.2008161
0.2007069
0.2008691
0.2008092
0.2007014
0.2006495
0.2008649
0.2008135
0.200705
0.2003398
0.2002942
0.2003548
0.2002794
0.2003409
0.2002967
0.2003571
0.2002805
0.2003105
0.2001895
0.20025
0.2002501
0.2008708
0.2008965
0.2007212
0.2007209
0.2008834
0.2008838
0.2007086
0.2008449
0.200803
0.2006961
0.2006302
0.2008575
0.2007904
0.2006836
0.2008448
0.2008021
0.2006949
0.200627
0.2008578
0.2007891
0.2006827
0.2008188
0.2007082
0.2006041
0.2006018
0.2007643
0.200763
0.2006576
0.1994439
0.1986803
0.1994602
0.1986625
0.1998784
0.2000655
0.2001263
0.1998169
0.1994126
0.1985636
0.1986291
0.1993496
0.2004377
0.200688
0.200294
0.2005161
0.200451
0.2006752
0.2002807
0.1999678
0.1991293
0.1998287
0.1989766
0.1999822
0.199113
0.1998141
0.2004106
0.2005922
0.2004897
0.2001958
0.2006488
0.2003531
0.2002535
0.1999392
0.1990188
0.1989448
0.1997256
0.1990816
0.1998797
0.1997853
0.1993889
0.1999305
0.1996438
0.1996762
0.198368
0.1967795
0.1975176
0.1975693
0.1989051
0.1983778
0.1991932
0.1980902
0.1993922
0.198695
0.1994686
0.1982814
0.199643
0.1984442
0.1992184
0.1999266
0.2004488
0.2000006
0.2000291
0.2001751
0.2002017
0.1997528
0.1988958
0.1972522
0.1978195
0.1978677
0.1979819
0.1980307
0.1987226
0.1994332
0.1988175
0.1995382
0.1983754
0.1997106
0.198539
0.1992598
0.199916
0.2001843
0.2001696
0.1999308
0.1994033
0.198522
0.1993356
0.1985913
0.1994352
0.1986404
0.1994504
0.1986244
0.2003996
0.2005826
0.2004749
0.2001651
0.2006454
0.2003363
0.2002296
0.200429
0.200688
0.2005049
0.2002742
0.2006744
0.2004427
0.2002598
0.1999113
0.1989568
0.1996756
0.1988615
0.1998469
0.1990233
0.1997409
0.1999413
0.1990699
0.1997864
0.1988937
0.1999555
0.1990549
0.1997716
0.1999423
0.2001957
0.200196
0.1999419
0.199461
0.198648
0.1994577
0.1986514
0.199462
0.1986511
0.1994612
0.1986522
0.2004525
0.2006946
0.2005307
0.2002815
0.2006979
0.2004493
0.2002854
0.2004539
0.2006997
0.2005328
0.200288
0.2006994
0.200454
0.2002873
0.1999655
0.1990772
0.1997939
0.1989213
0.1999623
0.1990806
0.1997977
0.1999668
0.199081
0.1997998
0.1989229
0.1999666
0.1990817
0.1997994
0.1999323
0.2001807
0.200187
0.1999256
0.1994553
0.1986481
0.1994589
0.1986437
0.19945
0.1986285
0.1994425
0.1986373
0.2004512
0.200699
0.2005325
0.2002876
0.2006974
0.2004531
0.2002862
0.2004481
0.2006902
0.2005303
0.2002794
0.2006946
0.2004433
0.2002836
0.1999627
0.1990787
0.1997989
0.1989181
0.1999652
0.1990751
0.1997969
0.1999588
0.1990624
0.1997883
0.1989134
0.1999531
0.1990699
0.1997935
0.1998672
0.200063
0.2001239
0.1998056
0.199413
0.1986155
0.1994311
0.1985955
0.1993804
0.1984947
0.1993172
0.1985605
0.2004215
0.2006829
0.2005071
0.200272
0.2006696
0.2004354
0.2002587
0.2003943
0.2005879
0.2004815
0.2001769
0.2006432
0.2003379
0.2002322
0.1999288
0.1990512
0.1997798
0.1988787
0.1999441
0.1990333
0.1997652
0.1998999
0.198939
0.1996794
0.1988472
0.1998415
0.1990012
0.1997369
0.1989574
0.1984302
0.1992195
0.1981665
0.1989368
0.1983644
0.1991898
0.1981109
0.1984621
0.1969242
0.1976827
0.1976501
0.1999771
0.2004711
0.2000726
0.2000595
0.2002305
0.2002197
0.1998185
0.1994982
0.1988894
0.1995997
0.1984925
0.1997546
0.1986319
0.1993424
0.1994753
0.1988138
0.1995595
0.1984166
0.1997207
0.1985676
0.1993155
0.1989929
0.1974062
0.1980147
0.1979682
0.1981554
0.1981166
0.1988358
0.1975702
0.1986239
0.1983333
0.1974686
0.1985305
0.1982786
0.1990977
0.1990572
0.198807
0.1981106
0.1988921
0.1988752
0.1992443
0.1995646
0.1993148
0.1993661
0.1995991
0.1993491
0.1981445
0.19891
0.1989092
0.1993756
0.1996319
0.1993809
0.1993853
0.1996352
0.199384
0.1981355
0.1988977
0.1989035
0.1993851
0.1996363
0.1993838
0.1993761
0.1996338
0.1993809
0.1980656
0.198781
0.1988412
0.1993672
0.1996072
0.1993525
0.1992653
0.1995791
0.1993236
0.1971725
0.1972178
0.1979448
0.199142
0.1991568
0.1988969
0.197702
0.1987006
0.1984378
0.1991819
0.1995291
0.1992396
0.1979435
0.1987589
0.1987446
0.1995568
0.1992813
0.1992677
0.1997241
0.1997998
0.1997819
0.1997035
0.1997884
0.1997748
0.1998282
0.1998238
0.1998101
0.1997613
0.1998221
0.19982
0.1998387
0.1998591
0.199845
0.1998511
0.1998632
0.1998489
0.1997607
0.199816
0.19982
0.1998517
0.1998658
0.1998513
0.1998452
0.1998637
0.1998492
0.199707
0.19971
0.1997666
0.1998371
0.1998379
0.1998235
0.1997392
0.1998102
0.1997957
0.1988332
0.1981697
0.1988963
0.1996187
0.1993937
0.1993785
0.1982038
0.1989442
0.198928
0.1992893
0.1995823
0.1992936
0.1979775
0.198776
0.1987749
0.1995847
0.1992971
0.1992961
0.1998322
0.1998552
0.1998367
0.1997317
0.1998045
0.1998035
0.1998579
0.1998403
0.1998393
0.1998721
0.1998793
0.1998769
0.1998689
0.1998766
0.1998755
0.1998821
0.1998809
0.1998797
0.1998728
0.1998737
0.1998777
0.199883
0.1998838
0.1998826
0.1998766
0.1998818
0.1998806
0.1998192
0.1997676
0.199824
0.1998684
0.1998559
0.1998547
0.1997705
0.199828
0.1998269
0.1989546
0.1982405
0.1989604
0.1996504
0.1994129
0.1994116
0.1982446
0.1989654
0.1989639
0.1992971
0.1995846
0.199296
0.197974
0.1987671
0.1987719
0.1995821
0.1992891
0.1992934
0.1998403
0.1998578
0.1998392
0.199729
0.1997964
0.1998007
0.199855
0.199832
0.1998365
0.1998808
0.199882
0.1998796
0.1998659
0.1998677
0.1998725
0.199879
0.1998718
0.1998767
0.1998817
0.1998764
0.1998804
0.1998799
0.1998746
0.1998795
0.1998735
0.1998725
0.1998774
0.199828
0.1997704
0.1998267
0.1998653
0.1998467
0.1998516
0.1997674
0.1998189
0.1998238
0.1989653
0.1982442
0.1989637
0.1996473
0.1994029
0.1994082
0.1982399
0.198954
0.19896
0.1992808
0.1995563
0.1992672
0.1979115
0.1986554
0.1987147
0.1995285
0.199181
0.199239
0.1998234
0.1998277
0.1998096
0.1996751
0.1996885
0.1997463
0.1997992
0.1997233
0.1997813
0.1998627
0.1998506
0.1998484
0.1998095
0.1997569
0.1998156
0.1998215
0.1997604
0.1998194
0.1998633
0.1998447
0.1998487
0.199822
0.1997622
0.1998215
0.1998154
0.1997599
0.1998194
0.1998098
0.1997387
0.1997952
0.1998073
0.199734
0.1997937
0.1997094
0.1997062
0.199766
0.1989435
0.1982025
0.198927
0.1995886
0.1992861
0.1993476
0.1981681
0.1988319
0.1988952
0.1990559
0.1990957
0.1988049
0.1970014
0.197049
0.1977998
0.1986205
0.1975642
0.1983297
0.1995978
0.1993641
0.1993471
0.1987672
0.1980701
0.1988377
0.1988888
0.1981048
0.1988719
0.199634
0.1993834
0.199382
0.1988981
0.1981364
0.1989032
0.1989067
0.1981388
0.1989059
0.1996326
0.1993742
0.199379
0.198906
0.1981347
0.198904
0.1988945
0.1981299
0.1989003
0.1995779
0.1992634
0.1993217
0.1988845
0.198093
0.1988686
0.1987778
0.1980601
0.198838
0.1986988
0.1976988
0.1984353
0.1986524
0.1976191
0.1984045
0.1972134
0.1971667
0.1979411
)
;

boundaryField
{
    solid_to_air
    {
        type            zeroGradient;
    }
}


// ************************************************************************* //
