/*--------------------------------*- C++ -*----------------------------------*\
| =========                 |                                                 |
| \\      /  F ield         | OpenFOAM: The Open Source CFD Toolbox           |
|  \\    /   O peration     | Version:  2506                                  |
|   \\  /    A nd           | Website:  www.openfoam.com                      |
|    \\/     M anipulation  |                                                 |
\*---------------------------------------------------------------------------*/
FoamFile
{
    version     2.0;
    format      ascii;
    arch        "LSB;label=32;scalar=64";
    class       volScalarField;
    location    "500/solid";
    object      T;
}
// * * * * * * * * * * * * * * * * * * * * * * * * * * * * * * * * * * * * * //

dimensions      [0 0 0 1 0 0 0];

internalField   nonuniform List<scalar> 
2304
(
330.6318
331.0304
331.0885
331.0909
331.0804
330.9827
331.0001
331.4293
331.4876
331.4914
331.4839
331.3901
331.0531
331.4802
331.5393
331.5435
331.5363
331.4435
331.057
331.4835
331.5427
331.5471
331.54
331.4473
331.0488
331.4764
331.5352
331.5394
331.5322
331.4393
330.9517
331.3806
331.4387
331.4422
331.4344
331.3401
330.7757
331.1265
331.1014
331.5115
331.1785
331.2311
331.564
331.6159
331.235
331.2375
331.6197
331.6226
331.2369
331.2313
331.6225
331.6187
331.2266
331.1771
331.615
331.569
331.1302
330.8102
331.5228
331.1491
331.1487
331.5587
331.197
331.6048
331.6112
331.6632
331.6571
331.7092
331.667
331.6701
331.7131
331.7165
331.67
331.6664
331.7165
331.7131
331.6628
331.6172
331.7096
331.6645
331.5713
331.1983
331.619
331.2492
331.2009
331.6082
331.2047
331.6113
331.6606
331.7127
331.6635
331.7158
331.7166
331.72
331.7197
331.7232
331.72
331.7167
331.7232
331.7199
331.7132
331.6682
331.7164
331.6714
331.6227
331.2536
331.626
331.2579
331.2047
331.6112
331.2008
331.6081
331.6635
331.7157
331.6605
331.7126
331.7197
331.7232
331.7165
331.72
331.7232
331.7199
331.7199
331.7166
331.7163
331.6714
331.7131
331.6681
331.626
331.2579
331.6226
331.2534
331.1968
331.6047
331.1483
331.5584
331.657
331.7091
331.6109
331.6629
331.713
331.7164
331.6667
331.6698
331.7163
331.713
331.6697
331.6661
331.7095
331.6644
331.6625
331.6169
331.6188
331.2489
331.571
331.1978
331.1008
331.5111
330.774
331.125
331.5635
331.6155
331.177
331.2296
331.6193
331.6222
331.2335
331.2361
331.622
331.6183
331.2355
331.2298
331.6146
331.5685
331.2252
331.1757
331.5224
331.1483
331.1287
330.8087
330.9775
330.9523
331.3272
331.0843
331.381
331.435
331.0914
331.4392
331.4428
331.0852
331.4426
331.4388
331.0302
331.4348
331.3876
330.6668
331.3405
331.0015
331.3753
331.049
331.4226
331.4834
331.4765
331.5309
331.4914
331.5354
331.5395
331.4878
331.5395
331.5362
331.437
331.5323
331.4859
331.0518
331.4394
331.1039
331.4264
331.057
331.4297
331.5348
331.4836
331.5382
331.5435
331.5427
331.5471
331.5402
331.5471
331.5438
331.49
331.54
331.4937
331.1086
331.4473
331.1132
331.4297
331.053
331.4263
331.5382
331.4802
331.5347
331.5471
331.5392
331.5434
331.5438
331.5434
331.5401
331.4937
331.5363
331.4899
331.1132
331.4434
331.1084
331.4225
330.9997
331.375
331.5308
331.4289
331.4831
331.5394
331.4873
331.4911
331.5361
331.4911
331.4875
331.4858
331.4836
331.4367
331.1036
331.3898
331.0513
331.3267
330.6302
330.976
331.4345
331.0289
331.0828
331.4423
331.087
331.0899
331.4384
331.0894
331.0838
331.3871
331.079
331.0288
331.0009
330.9813
330.6653
331.0535
330.7499
330.898
330.8888
331.3556
331.1626
331.192
331.3263
331.3836
331.2188
331.2203
331.382
331.3817
331.2195
331.2181
331.383
331.364
331.2077
331.1991
331.3722
331.1955
331.1085
331.0306
331.2744
331.3293
331.1303
331.3025
331.1574
331.6356
331.5797
331.609
331.6063
331.6636
331.6353
331.6369
331.6619
331.6629
331.637
331.6361
331.6638
331.6473
331.628
331.6204
331.6548
331.4804
331.5323
331.453
331.5595
331.3572
331.184
331.3551
331.1862
331.6623
331.6311
331.6604
331.6331
331.6905
331.6868
331.6885
331.6888
331.69
331.6889
331.688
331.6908
331.6744
331.68
331.6724
331.6819
331.5085
331.5851
331.5064
331.5871
331.3583
331.188
331.3588
331.1874
331.6633
331.6345
331.6637
331.634
331.6915
331.6903
331.692
331.6898
331.691
331.6923
331.6914
331.6918
331.6754
331.6834
331.6759
331.6829
331.5095
331.5886
331.51
331.5881
331.3434
331.1796
331.3509
331.1718
331.6494
331.6273
331.6566
331.6201
331.6774
331.683
331.6847
331.6757
331.6768
331.685
331.6841
331.6777
331.6613
331.6761
331.6686
331.6688
331.4946
331.5811
331.5022
331.5736
331.1738
331.0817
331.254
331.0027
331.4789
331.5311
331.5604
331.4496
331.5067
331.5866
331.5882
331.5051
331.5053
331.5882
331.5872
331.5064
331.4886
331.5788
331.5711
331.4965
331.3202
331.4826
331.4032
331.3996
330.7688
330.7613
330.9113
331.0602
331.1801
331.2099
331.0905
331.2379
331.2399
331.0898
331.2407
331.2398
331.0722
331.2313
331.2235
330.9057
331.1352
331.0575
331.1561
331.0269
331.1826
331.4593
331.4556
331.4857
331.4899
331.5142
331.5164
331.4909
331.5181
331.5177
331.4767
331.5108
331.5037
331.3124
331.4174
331.3399
331.208
331.0553
331.21
331.5104
331.4821
331.5123
331.5416
331.5412
331.5436
331.5431
331.5456
331.5452
331.5293
331.5384
331.5314
331.3665
331.4457
331.3687
331.2116
331.0564
331.2111
331.5137
331.4831
331.5132
331.5451
331.5423
331.5447
331.5468
331.5467
331.5463
331.5329
331.5395
331.5325
331.3704
331.4468
331.3699
331.2039
331.0412
331.1965
331.5065
331.4693
331.4994
331.5376
331.5281
331.5304
331.539
331.5321
331.5317
331.5252
331.5249
331.5178
331.3621
331.4318
331.3544
331.1077
330.8733
331.0284
331.4106
331.3001
331.33
331.4409
331.358
331.3601
331.4417
331.3612
331.3605
331.4271
331.3527
331.3453
331.2621
331.2576
331.1797
331.1855
331.11
331.0235
331.2735
331.1746
331.0823
331.0036
331.2545
331.3083
331.4783
331.3972
331.389
331.1314
330.8172
330.919
330.9106
330.9626
330.9535
331.0849
331.2654
331.171
331.0416
331.3047
331.0859
331.3522
331.218
331.2558
331.1448
331.0238
331.2878
331.067
331.3351
331.2087
331.3917
331.5598
331.4314
331.4237
331.4793
331.4718
331.3439
331.3709
331.2151
331.2074
331.3785
331.4795
331.5315
331.4503
331.5609
331.4947
331.5835
331.5023
331.576
331.4331
331.2229
331.2077
331.3568
331.2519
331.4042
331.3859
331.4482
331.2749
331.2232
331.4089
331.2673
331.4557
331.4012
331.5604
331.6121
331.4837
331.5931
331.5316
331.641
331.5128
331.5754
331.6634
331.5356
331.6083
331.5829
331.6559
331.528
331.384
331.2204
331.2207
331.3838
331.5074
331.5871
331.5058
331.5887
331.5079
331.5892
331.5077
331.5893
331.4609
331.2786
331.2368
331.4127
331.2803
331.4593
331.4145
331.4615
331.2806
331.2375
331.4153
331.2808
331.4614
331.4152
331.5881
331.6669
331.5394
331.6216
331.5865
331.6686
331.5412
331.5887
331.6694
331.5422
331.6224
331.5888
331.6693
331.542
331.3798
331.2128
331.2159
331.3769
331.506
331.5886
331.5071
331.5876
331.5043
331.5835
331.5016
331.5861
331.4598
331.2799
331.2359
331.4149
331.2786
331.4609
331.414
331.4582
331.2738
331.2341
331.41
331.2767
331.4557
331.4125
331.5875
331.6691
331.5419
331.6219
331.5883
331.6683
331.5412
331.5861
331.6649
331.5377
331.6207
331.5838
331.667
331.5399
331.3491
331.1563
331.1838
331.322
331.4893
331.5793
331.4971
331.5716
331.4747
331.5306
331.4479
331.5572
331.4436
331.269
331.2186
331.4058
331.2608
331.4513
331.3983
331.4294
331.219
331.2038
331.358
331.2459
331.4031
331.3841
331.5724
331.6611
331.5338
331.608
331.5797
331.6539
331.5266
331.5585
331.6146
331.4871
331.5945
331.5326
331.6403
331.5129
331.0766
330.7798
330.9174
330.9239
331.321
331.4831
331.4003
331.4037
331.201
331.1245
331.043
331.2834
331.2784
331.172
331.0537
331.3115
331.0952
331.3564
331.2339
331.1566
330.8491
330.9426
330.9508
330.9835
330.9912
331.1128
331.4077
331.5682
331.4408
331.4449
331.486
331.4898
331.3628
331.2843
331.1896
331.0685
331.322
331.1091
331.3661
331.2402
331.4638
331.5265
331.4371
331.5531
331.3436
331.1798
331.172
331.3511
331.4779
331.5743
331.5671
331.4852
331.4086
331.1922
331.3349
331.1753
331.3823
331.2189
331.3611
331.5451
331.607
331.4708
331.5846
331.519
331.633
331.4968
331.4225
331.2407
331.1895
331.382
331.2332
331.4296
331.3749
331.5587
331.6533
331.598
331.5172
331.6465
331.5656
331.5104
331.6508
331.6317
331.6242
331.6583
331.6496
331.6274
331.6203
331.6567
331.6648
331.6795
331.6723
331.6719
331.7141
331.6594
331.6403
331.637
331.6882
331.6852
331.6661
331.7291
331.7106
331.6555
331.689
331.7032
331.7365
331.6813
331.7275
331.7055
331.6504
331.6862
331.6987
331.7343
331.6795
331.7425
331.7568
331.7025
331.7015
331.75
331.7493
331.6948
331.6642
331.6375
331.6375
331.6642
331.6776
331.6831
331.6759
331.6848
331.6783
331.6855
331.6783
331.6855
331.7419
331.7142
331.6689
331.6929
331.7159
331.7401
331.6948
331.7426
331.7168
331.6698
331.6961
331.7166
331.7428
331.6957
331.7554
331.7604
331.7064
331.7151
331.7536
331.7622
331.7083
331.7561
331.7632
331.7096
331.7161
331.7563
331.763
331.7093
331.6614
331.6321
331.6346
331.659
331.677
331.6851
331.6779
331.6842
331.6755
331.6804
331.6731
331.6828
331.7419
331.7165
331.6694
331.696
331.7158
331.7426
331.6955
331.7408
331.7126
331.6684
331.6926
331.7146
331.7387
331.6945
331.7555
331.763
331.7096
331.716
331.7561
331.7624
331.7091
331.7544
331.7592
331.7062
331.715
331.7523
331.7612
331.7081
331.6332
331.5797
331.6062
331.6068
331.6615
331.6762
331.669
331.6687
331.6473
331.6283
331.621
331.6546
331.7281
331.7089
331.656
331.689
331.7018
331.7351
331.6822
331.7147
331.6628
331.6426
331.6437
331.6883
331.6892
331.669
331.7418
331.7556
331.7027
331.7029
331.7487
331.7487
331.6959
331.7284
331.71
331.6575
331.6897
331.703
331.7353
331.6827
331.3604
331.1741
331.3328
331.2021
331.4949
331.5812
331.5739
331.5024
331.3752
331.2254
331.2173
331.383
331.5652
331.6166
331.4935
331.5979
331.5383
331.6432
331.5204
331.4419
331.2386
331.3708
331.2261
331.4148
331.2663
331.3981
331.5793
331.6642
331.6119
331.5418
331.6571
331.5865
331.5346
331.4564
331.2891
331.2412
331.4202
331.2812
331.4639
331.4126
331.491
331.578
331.489
331.58
331.3584
331.188
331.1875
331.3589
331.4921
331.5815
331.581
331.4925
331.4353
331.2447
331.3857
331.2031
331.4333
331.2468
331.3876
331.571
331.6568
331.5208
331.61
331.5692
331.6585
331.5226
331.4363
331.2485
331.2042
331.3891
331.248
331.4368
331.3886
331.572
331.6598
331.6109
331.5239
331.6595
331.5724
331.5235
331.6775
331.6832
331.6756
331.6851
331.6633
331.6345
331.6341
331.6638
331.6786
331.6866
331.6862
331.679
331.7394
331.7089
331.6896
331.6623
331.7377
331.7106
331.6914
331.7545
331.7602
331.7049
331.7145
331.7527
331.762
331.7067
331.7403
331.7119
331.6632
331.6926
331.7115
331.7407
331.6923
331.7553
331.7633
331.7154
331.708
331.7629
331.7557
331.7076
331.6912
331.6893
331.6892
331.6913
331.6916
331.6903
331.6898
331.692
331.6923
331.6928
331.6923
331.6927
331.7674
331.7639
331.7186
331.7184
331.7657
331.7657
331.7204
331.7683
331.7667
331.7196
331.7219
331.7665
331.7685
331.7215
331.7684
331.767
331.7193
331.7218
331.7666
331.7688
331.7214
331.7692
331.7698
331.7228
331.7228
331.7694
331.7696
331.7224
331.6885
331.6841
331.6865
331.6861
331.691
331.6923
331.6919
331.6915
331.6895
331.6876
331.6871
331.69
331.7677
331.7665
331.7195
331.7218
331.7659
331.7683
331.7214
331.7665
331.7627
331.7186
331.7185
331.7647
331.7645
331.7204
331.7686
331.7696
331.7228
331.7227
331.7692
331.769
331.7223
331.7675
331.7659
331.7195
331.7217
331.7655
331.7679
331.7213
331.6603
331.6321
331.6583
331.6341
331.6754
331.6834
331.683
331.6759
331.6613
331.6355
331.6351
331.6618
331.754
331.7591
331.7064
331.715
331.7522
331.7609
331.7083
331.7406
331.7135
331.6932
331.67
331.7388
331.7153
331.6951
331.7549
331.7622
331.716
331.7096
331.7618
331.7553
331.7092
331.7415
331.7167
331.671
331.6964
331.7163
331.7419
331.696
331.3893
331.2297
331.3871
331.2321
331.5096
331.5886
331.5881
331.51
331.3905
331.234
331.2334
331.391
331.5922
331.6678
331.5457
331.6246
331.5902
331.6696
331.5477
331.4699
331.2933
331.4242
331.256
331.4678
331.2957
331.4264
331.5932
331.671
331.6256
331.5492
331.6706
331.5936
331.5487
331.471
331.2974
331.2573
331.428
331.2969
331.4715
331.4275
331.492
331.5814
331.4925
331.581
331.3571
331.1838
331.1861
331.355
331.4909
331.5779
331.5799
331.4889
331.4363
331.2485
331.3891
331.2042
331.4367
331.2479
331.3886
331.5719
331.6598
331.5239
331.6109
331.5724
331.6594
331.5235
331.4352
331.2445
331.203
331.3856
331.2467
331.4332
331.3876
331.571
331.6567
331.6099
331.5207
331.6585
331.5691
331.5225
331.6785
331.6866
331.679
331.6861
331.6622
331.631
331.633
331.6603
331.6775
331.6831
331.6851
331.6755
331.7403
331.7119
331.6926
331.6631
331.7407
331.7115
331.6922
331.7553
331.7632
331.708
331.7153
331.7557
331.7628
331.7076
331.7394
331.7088
331.6622
331.6896
331.7106
331.7376
331.6913
331.7544
331.7601
331.7144
331.7049
331.7619
331.7526
331.7066
331.6922
331.6928
331.6927
331.6923
331.6904
331.6867
331.6887
331.6884
331.6911
331.6892
331.6912
331.6891
331.7683
331.7669
331.7217
331.7193
331.7687
331.7665
331.7213
331.7691
331.7698
331.7228
331.7228
331.7696
331.7694
331.7224
331.7674
331.7638
331.7184
331.7186
331.7656
331.7656
331.7204
331.7682
331.7666
331.7218
331.7195
331.7684
331.7664
331.7214
331.6895
331.6876
331.69
331.6871
331.6899
331.6887
331.6908
331.6879
331.6884
331.684
331.686
331.6864
331.7686
331.7696
331.7227
331.7227
331.769
331.7692
331.7223
331.7674
331.7658
331.7217
331.7195
331.7679
331.7654
331.7213
331.7676
331.7664
331.7218
331.7195
331.7682
331.7658
331.7213
331.7665
331.7626
331.7185
331.7185
331.7645
331.7646
331.7203
331.6613
331.6355
331.6618
331.635
331.6743
331.6798
331.6819
331.6723
331.6602
331.6319
331.634
331.6582
331.7548
331.7622
331.7096
331.7159
331.7553
331.7618
331.7092
331.7415
331.7167
331.6964
331.671
331.7419
331.7162
331.696
331.7539
331.759
331.715
331.7063
331.7608
331.7521
331.7082
331.7405
331.7134
331.67
331.6931
331.7153
331.7387
331.695
331.3904
331.234
331.391
331.2333
331.5083
331.5849
331.587
331.5062
331.3892
331.2295
331.232
331.3869
331.5931
331.671
331.5491
331.6255
331.5936
331.6705
331.5487
331.471
331.2974
331.428
331.2572
331.4715
331.2968
331.4275
331.5921
331.6676
331.6245
331.5455
331.6695
331.5901
331.5476
331.4698
331.2931
331.2559
331.424
331.2955
331.4676
331.4262
331.4777
331.5741
331.485
331.5669
331.329
331.1299
331.1571
331.3021
331.4635
331.5261
331.5528
331.4367
331.4222
331.2405
331.3818
331.1893
331.4294
331.2329
331.3747
331.5585
331.6532
331.5171
331.5978
331.5655
331.6463
331.5102
331.4083
331.1918
331.175
331.3346
331.2185
331.382
331.3608
331.5448
331.6067
331.5843
331.4705
331.6328
331.5187
331.4965
331.6646
331.6793
331.6718
331.6721
331.6354
331.5794
331.6061
331.6087
331.6505
331.6314
331.6581
331.6239
331.7273
331.7053
331.6861
331.6502
331.7342
331.6985
331.6793
331.7423
331.7566
331.7014
331.7023
331.7492
331.7498
331.6946
331.7139
331.659
331.6368
331.64
331.685
331.6879
331.6659
331.7288
331.7103
331.6888
331.6552
331.7363
331.7029
331.6811
331.6781
331.6854
331.6853
331.6781
331.6633
331.635
331.6617
331.6366
331.664
331.6372
331.664
331.6372
331.7552
331.7603
331.715
331.7062
331.7621
331.7535
331.7082
331.756
331.7631
331.716
331.7095
331.7629
331.7562
331.7091
331.7416
331.7139
331.6927
331.6686
331.7399
331.7156
331.6946
331.7424
331.7165
331.6959
331.6695
331.7426
331.7163
331.6955
331.6753
331.6802
331.6826
331.6729
331.6626
331.6367
331.6635
331.6357
331.6611
331.6318
331.6587
331.6342
331.7553
331.7629
331.7159
331.7094
331.7623
331.756
331.709
331.7542
331.7591
331.7149
331.7061
331.7611
331.7522
331.708
331.7417
331.7162
331.6958
331.6691
331.7423
331.7155
331.6953
331.7405
331.7123
331.6924
331.6681
331.7385
331.7143
331.6943
331.6471
331.6281
331.6544
331.6208
331.647
331.6276
331.6546
331.62
331.6329
331.5793
331.6065
331.6058
331.7416
331.7555
331.7027
331.7026
331.7485
331.7485
331.6958
331.7282
331.7098
331.6895
331.6574
331.7352
331.7028
331.6825
331.7279
331.7086
331.6888
331.6557
331.7348
331.7015
331.682
331.7145
331.6625
331.6435
331.6423
331.689
331.688
331.6688
331.3749
331.2251
331.3827
331.2169
331.4801
331.5319
331.5592
331.4526
331.36
331.1735
331.2016
331.3322
331.579
331.664
331.5417
331.6117
331.5863
331.6569
331.5343
331.4561
331.2888
331.4199
331.2409
331.4636
331.2808
331.4123
331.5649
331.6163
331.5977
331.4931
331.6429
331.5379
331.5201
331.4416
331.238
331.2257
331.3703
331.2658
331.4143
331.3977
331.3076
331.4778
331.3885
331.3965
331.0524
330.7484
330.8876
330.8967
331.1845
331.1088
331.2725
331.0222
331.255
331.1442
331.2873
331.0229
331.3346
331.0662
331.2079
331.391
331.5593
331.4232
331.4307
331.4713
331.4787
331.3432
331.1303
330.8156
330.9093
330.9173
330.9523
330.9611
331.0837
331.2643
331.1696
331.3036
331.04
331.3512
331.0845
331.2169
331.4941
331.5831
331.5755
331.5016
331.3547
331.1614
331.3254
331.1908
331.3699
331.2139
331.3775
331.2062
331.5598
331.6116
331.5926
331.483
331.6405
331.5309
331.5121
331.5748
331.6629
331.6078
331.535
331.6555
331.5822
331.5273
331.4321
331.2216
331.3558
331.2062
331.4032
331.2506
331.3849
331.4472
331.2736
331.4079
331.2217
331.4548
331.266
331.4002
331.5072
331.5887
331.5888
331.5071
331.3826
331.2176
331.3811
331.2191
331.3831
331.2192
331.3828
331.2195
331.5875
331.6665
331.6211
331.5387
331.6682
331.5858
331.5406
331.5881
331.669
331.622
331.5415
331.6689
331.5881
331.5413
331.46
331.2773
331.4117
331.2354
331.4584
331.279
331.4134
331.4606
331.2793
331.4143
331.2361
331.4605
331.2795
331.4142
331.5036
331.5831
331.5856
331.5009
331.3808
331.2183
331.3821
331.2169
331.3789
331.2116
331.376
331.2147
331.5868
331.6686
331.6214
331.5412
331.6679
331.5877
331.5405
331.5854
331.6645
331.6203
331.5371
331.6666
331.5831
331.5393
331.4589
331.2786
331.4138
331.2344
331.4599
331.2773
331.413
331.4573
331.2725
331.409
331.2326
331.4547
331.2754
331.4115
331.474
331.5301
331.5568
331.4472
331.363
331.2065
331.3712
331.1979
331.3482
331.1552
331.3211
331.1826
331.5718
331.6606
331.6076
331.5332
331.6535
331.5791
331.526
331.5579
331.6141
331.5941
331.4864
331.6399
331.5319
331.5122
331.4427
331.2677
331.4048
331.2171
331.4504
331.2595
331.3973
331.4284
331.2178
331.357
331.2024
331.4021
331.2447
331.3831
331.2001
331.1238
331.2827
331.0421
331.1944
331.1073
331.2734
331.0294
331.0754
330.7785
330.9227
330.9161
331.4069
331.5677
331.4443
331.4401
331.4893
331.4854
331.3621
331.2835
331.1888
331.3213
331.0675
331.3655
331.1081
331.2394
331.2774
331.1707
331.3105
331.0523
331.3554
331.0939
331.2328
331.1555
330.8476
330.9495
330.9411
330.9899
330.9821
331.1116
330.8915
331.1269
331.0394
330.8741
331.1082
331.0292
331.2472
331.2385
331.1588
331.0761
331.2338
331.2257
331.3008
331.411
331.3307
331.3545
331.4269
331.3465
331.0913
331.241
331.2408
331.3587
331.4413
331.3608
331.3621
331.4424
331.3617
331.088
331.2357
331.2383
331.3618
331.4421
331.3611
331.3575
331.4409
331.3598
331.0573
331.1824
331.209
331.3534
331.4275
331.3459
331.3055
331.4136
331.3317
330.7947
330.8021
330.942
331.2583
331.2626
331.1804
330.92
331.1461
331.0641
331.2865
331.4017
331.3128
331.0414
331.204
331.1967
331.4155
331.3339
331.3268
331.4752
331.5098
331.5016
331.4695
331.5066
331.4996
331.5238
331.5226
331.5156
331.491
331.5181
331.5176
331.5282
331.5377
331.5305
331.5323
331.5389
331.5317
331.4898
331.5146
331.5166
331.5323
331.5391
331.5319
331.5289
331.5381
331.5308
331.4629
331.4642
331.4899
331.525
331.5253
331.518
331.4786
331.5116
331.5043
331.196
331.0801
331.2239
331.4319
331.3623
331.3546
331.0956
331.2469
331.2389
331.3378
331.4283
331.3397
331.0565
331.2116
331.2111
331.4293
331.3412
331.3408
331.5265
331.5368
331.5284
331.4831
331.5137
331.5133
331.5378
331.5299
331.5294
331.5429
331.5455
331.5449
331.5423
331.5451
331.5447
331.5466
331.5465
331.546
331.5421
331.5422
331.5442
331.5467
331.5468
331.5463
331.5433
331.5457
331.5453
331.5156
331.4921
331.5177
331.5395
331.5329
331.5325
331.4932
331.5193
331.5188
331.2513
331.1112
331.2537
331.4468
331.3704
331.3699
331.1126
331.2555
331.255
331.3412
331.4292
331.3407
331.0552
331.2079
331.21
331.4282
331.3377
331.3397
331.5298
331.5378
331.5294
331.4821
331.5103
331.5122
331.5367
331.5264
331.5283
331.5464
331.5466
331.546
331.5412
331.5415
331.5436
331.5455
331.5428
331.5449
331.5457
331.5433
331.5452
331.5455
331.5431
331.5451
331.5422
331.542
331.5441
331.5193
331.4932
331.5188
331.5384
331.5292
331.5313
331.492
331.5155
331.5176
331.2555
331.1125
331.2549
331.4456
331.3664
331.3686
331.111
331.2511
331.2536
331.3338
331.4154
331.3266
331.0266
331.1557
331.1823
331.4014
331.2861
331.3126
331.5225
331.5237
331.5154
331.4554
331.459
331.4855
331.5096
331.4749
331.5014
331.5388
331.5321
331.5316
331.514
331.4896
331.5162
331.5179
331.4907
331.5174
331.538
331.5287
331.5307
331.5179
331.4906
331.5175
331.5144
331.4895
331.5164
331.5115
331.4784
331.5041
331.5106
331.4764
331.5035
331.464
331.4626
331.4897
331.2466
331.0953
331.2387
331.4172
331.312
331.3396
331.0797
331.1956
331.2235
331.238
331.2464
331.1581
330.7601
330.7672
330.9101
331.1258
330.8899
331.0382
331.4264
331.3538
331.3458
331.1791
331.0587
331.2088
331.2327
331.0746
331.2247
331.4419
331.3614
331.3611
331.2368
331.089
331.2389
331.24
331.0898
331.2398
331.4405
331.3569
331.3591
331.2396
331.0884
331.2388
331.2347
331.0866
331.2372
331.4132
331.3048
331.3311
331.2303
331.0708
331.2225
331.1814
331.0558
331.208
331.1455
330.9191
331.0632
331.1341
330.9042
331.0564
330.8009
330.7932
330.9408
)
;

boundaryField
{
    solid_to_air
    {
        type            compressible::turbulentTemperatureRadCoupledMixed;
        refValue        nonuniform List<scalar> 
1536
(
302.3842
302.8924
302.9452
302.9492
302.926
302.8537
302.2114
302.8971
303.0194
303.0433
303.0162
302.8778
302.2595
302.9904
303.1286
303.1598
303.1332
302.9823
302.2723
303.0091
303.1506
303.1836
303.1572
303.004
302.2515
302.9811
303.118
303.1483
303.1215
302.9722
302.1987
302.8491
302.965
302.9863
302.9591
302.8272
304.3299
304.5164
301.5496
301.9979
301.7747
302.0605
301.8509
302.1125
301.8798
302.1263
301.8699
302.0946
301.7981
304.8126
301.8715
301.3323
302.7478
302.9394
303.0088
303.0048
302.876
302.2085
301.9035
301.3658
302.8502
303.0722
303.1541
303.151
303.0059
302.2881
301.9115
301.3728
302.8697
303.0993
303.1849
303.183
303.0351
302.3105
301.8982
301.3573
302.833
303.052
303.1333
303.1298
302.9874
302.2773
301.8638
301.3086
302.6867
302.8676
302.9336
302.9315
302.812
302.1961
304.3235
302.0077
302.0723
302.1259
302.1404
302.1078
305.0991
302.1695
302.1001
302.0948
302.1044
302.1259
302.1294
302.1299
302.1249
302.0972
302.0828
305.3164
305.2014
301.7516
302.8686
302.1979
302.764
302.9379
302.8416
302.9424
302.9514
302.956
302.9771
302.9351
302.9768
302.9624
302.8796
302.9496
302.8732
302.7428
302.8182
302.7996
305.8519
302.4072
301.7616
301.7871
302.8137
302.2509
302.8869
303.0044
302.9774
303.0963
303.043
303.1136
303.1426
303.0291
303.1436
303.1306
302.9358
303.1169
303.0304
302.829
302.9677
302.8839
302.415
302.4636
301.7937
301.8013
302.8995
302.2722
302.9168
303.1108
303.0086
303.1317
303.1584
303.1499
303.1814
303.1468
303.1829
303.1705
303.0455
303.1565
303.0677
302.8929
303.0033
302.9069
302.4761
302.4934
301.8014
301.7945
302.9172
302.26
302.9019
303.1321
302.993
303.114
303.1819
303.1317
303.1619
303.1709
303.163
303.1503
303.0681
303.1364
303.0489
302.9072
302.9854
302.8955
302.4942
302.4802
301.7884
301.7634
302.8902
302.2122
302.8194
303.1005
302.9035
303.0119
303.147
303.0269
303.051
303.1351
303.0512
303.0372
303.0348
303.024
302.9436
302.8871
302.8854
302.8346
302.4691
302.4238
301.7537
305.1859
302.7708
302.3834
302.8755
305.0932
302.1863
302.9511
302.9001
302.9469
302.1166
302.1121
302.9864
302.9546
302.9612
302.1221
302.1448
302.9718
302.9591
302.9449
302.1485
302.1494
302.8823
302.9358
302.8888
302.1444
302.116
302.8058
302.8625
302.7483
302.4173
302.101
305.8447
305.3178
302.0145
301.738
301.8621
301.306
302.5874
302.042
301.834
302.6774
302.8256
302.1027
301.8766
302.8555
302.9116
302.1273
301.8799
302.9201
302.9287
302.1062
301.8343
302.9175
302.8559
304.5738
301.87
302.7987
302.1879
302.0614
302.6511
301.8972
301.356
302.7223
302.9069
302.8283
303.0087
302.9998
303.0456
303.1154
303.0173
303.1259
303.1357
302.9376
303.1221
303.0469
302.1219
302.9801
302.2726
302.1963
302.7415
301.9113
301.3724
302.7581
303.0345
302.8689
303.0595
303.1433
303.0983
303.1724
303.1645
303.1838
303.1951
303.0743
303.1817
303.1034
302.2178
303.0337
302.3099
302.2384
302.7588
301.9042
301.3663
302.7439
303.0605
302.853
303.0383
303.1734
303.0763
303.1479
303.1962
303.1589
303.1694
303.1047
303.156
303.0791
302.2397
303.0106
302.2917
302.2218
302.7263
301.873
301.3337
302.657
303.0146
302.7548
302.9158
303.1225
302.9488
303.01
303.1433
303.0193
303.0283
303.0544
303.0159
302.9485
302.2029
302.8866
302.2158
302.1311
302.5955
304.5027
301.5499
302.024
301.7448
302.8371
301.7824
302.0532
301.8428
302.9248
301.8601
302.1158
301.8865
302.9425
301.8899
302.1414
301.8903
302.8695
301.8803
302.1199
301.8445
302.0732
301.8079
304.8045
304.5749
301.8769
302.4919
302.7566
302.2894
304.4358
304.4891
302.9087
302.2963
302.731
302.9112
302.6982
302.3613
302.3628
302.783
302.9491
302.7766
302.3793
302.3791
302.7843
302.946
302.7872
302.3707
302.3666
302.746
302.9146
302.7606
302.3479
302.3396
302.5998
302.8255
302.6568
302.3047
302.3154
304.6934
302.6743
302.5202
302.4987
302.2266
301.9785
301.9887
302.9853
302.9473
302.933
303.0738
303.0307
303.0616
303.0867
303.0417
303.0881
303.0427
302.9985
303.061
302.8215
302.7847
302.9178
302.3182
302.3292
302.5678
302.5608
302.266
302.013
302.0172
303.0551
303.0456
302.9995
303.1534
303.1424
303.1393
303.1706
303.159
303.1714
303.1255
303.1141
303.1448
302.8912
302.8815
302.9927
302.3526
302.3571
302.5731
302.5751
302.2703
302.0216
302.0204
303.0628
303.0652
303.0067
303.1621
303.165
303.1478
303.1799
303.183
303.1806
303.1347
303.1378
303.1541
302.8992
302.9019
303.0012
302.3621
302.3611
302.5399
302.5525
302.2405
302.0072
302
303.0174
303.036
302.9635
303.1103
303.1315
303.0973
303.1249
303.1474
303.1261
303.0805
303.1026
303.0992
302.8538
302.8724
302.9523
302.3501
302.3428
302.4503
302.4741
302.2069
301.9704
302.0026
302.8071
302.8974
302.7647
302.8752
302.9754
302.8663
302.8811
302.9844
302.8834
302.84
302.942
302.8562
302.6565
302.7389
302.7346
302.3175
302.3538
304.4312
302.9184
302.3745
302.3763
302.3926
302.3925
302.3841
302.38
302.3611
302.3527
302.3168
302.3267
302.5019
301.7917
302.5827
301.4874
302.1864
302.8352
301.7967
302.0064
302.784
302.9388
301.8619
302.0769
302.919
302.9782
301.8823
302.12
302.9716
302.9644
301.8628
302.1231
302.9726
302.836
301.7999
302.1155
302.8832
302.4099
302.3929
301.3392
301.8809
302.8596
302.82
302.783
303.0144
302.9658
302.9861
303.0682
303.0164
303.0603
303.0424
302.9918
303.0563
302.8497
302.8075
302.9217
302.4502
302.4455
301.3686
301.9074
302.9421
302.9315
302.8598
303.1162
303.1024
303.0856
303.1777
303.1626
303.1689
303.152
303.1362
303.1668
302.9426
302.9291
303.0204
302.4541
302.4549
301.372
301.9104
302.9509
302.9531
302.8678
303.1276
303.1306
303.0966
303.1904
303.1939
303.1815
303.1647
303.1681
303.1796
302.9538
302.9567
303.032
302.4267
302.4349
301.3525
301.8916
302.8953
302.9145
302.816
303.0583
303.0826
303.0287
303.1156
303.1419
303.1072
303.089
303.1151
303.1033
302.8898
302.9116
302.9639
302.3486
302.3565
301.343
301.8958
302.695
302.7551
302.6351
302.8178
302.8925
302.7956
302.8618
302.9409
302.855
302.8428
302.9197
302.8531
302.6906
302.7475
302.7446
302.383
302.495
305.0693
303.1343
303.1989
302.2421
302.4116
302.4861
302.3785
302.3724
302.1699
302.0832
302.1507
302.1585
302.0866
302.1523
302.3749
302.3774
302.1653
302.113
302.1713
302.1813
302.1202
302.1768
302.3557
302.3614
302.1836
302.1316
302.1847
302.181
302.1315
302.1836
302.3175
302.329
302.1749
302.1187
302.1676
302.1439
302.1085
302.1564
304.5031
302.53
302.128
302.1076
302.1489
305.2846
302.4768
302.5042
301.9689
302.0017
305.1981
302.2323
302.2416
301.7637
301.7973
301.8091
302.5826
302.8361
302.6504
302.4464
302.2064
302.4705
302.5872
302.6897
302.6421
302.7525
302.9264
302.7677
302.798
302.7562
302.8893
302.8252
302.8445
302.9204
302.7869
302.9511
302.7888
302.8648
302.8561
302.9662
302.8705
302.8736
302.9731
302.7792
302.9414
302.7719
302.8704
302.8728
302.9749
302.8655
302.8579
302.9702
302.7257
302.8994
302.6981
302.8295
302.8457
302.9326
302.8066
302.7746
302.9081
302.5737
302.8188
302.7786
302.6469
302.7247
302.7302
302.5815
302.7674
302.6435
302.3118
302.3481
305.6987
303.1894
303.1394
302.4337
302.5132
302.5194
302.0063
301.9989
301.7744
301.7706
301.7841
301.8017
301.7807
301.7947
302.7105
302.6829
302.8461
302.5377
302.2398
302.5507
302.7314
302.8699
302.7466
303.0203
302.9805
303.0456
303.0126
302.959
303.032
303.0489
303.0753
303.0692
303.0821
303.0383
303.0874
303.1049
303.092
303.127
303.1139
303.1197
303.1366
303.082
303.037
303.0742
303.1194
303.1205
303.1428
303.115
303.1072
303.1386
303.0159
302.9726
302.9778
303.0749
303.0936
303.098
303.0476
303.0085
303.0703
302.7209
302.689
302.8526
302.8486
302.9469
302.868
302.7447
302.8704
302.762
302.347
302.3389
302.4389
302.4314
302.4507
302.4745
302.4495
302.4643
302.0214
302.0201
301.8086
301.7974
301.8126
301.8168
301.8001
301.8156
302.7658
302.758
302.9081
302.5725
302.2701
302.5749
302.7711
302.9139
302.7738
303.0931
303.0831
303.1212
303.0615
303.0055
303.0647
303.0999
303.1282
303.1033
303.1632
303.1521
303.1698
303.1606
303.1464
303.1644
303.1709
303.1776
303.1748
303.1663
303.1547
303.1585
303.1784
303.1791
303.1824
303.1744
303.1665
303.1784
303.097
303.0858
303.0564
303.1332
303.1526
303.1372
303.1048
303.0639
303.1087
302.7825
302.7739
302.8997
302.8979
302.9998
302.9013
302.7885
302.9044
302.7916
302.3618
302.3601
302.4835
302.4845
302.4895
302.4962
302.4905
302.4939
302.0136
302.0177
301.817
301.8005
301.8159
301.8095
301.798
301.8133
302.772
302.7741
302.9149
302.5688
302.2663
302.5621
302.7673
302.9099
302.76
303.1011
303.1037
303.1294
303.0572
303.0014
303.0484
303.0954
303.1235
303.0863
303.1721
303.1752
303.1789
303.1557
303.1416
303.1456
303.1658