/*--------------------------------*- C++ -*----------------------------------*\
| =========                 |                                                 |
| \\      /  F ield         | OpenFOAM: The Open Source CFD Toolbox           |
|  \\    /   O peration     | Version:  2506                                  |
|   \\  /    A nd           | Website:  www.openfoam.com                      |
|    \\/     M anipulation  |                                                 |
\*---------------------------------------------------------------------------*/
FoamFile
{
    version     2.0;
    format      ascii;
    arch        "LSB;label=32;scalar=64";
    class       volScalarField;
    location    "1500/solid";
    object      damage;
}
// * * * * * * * * * * * * * * * * * * * * * * * * * * * * * * * * * * * * * //

dimensions      [0 0 0 0 0 0 0];

internalField   nonuniform List<scalar> 
2304
(
0.4031149
0.4078181
0.4087283
0.4088077
0.4085967
0.4072124
0.4075593
0.4125967
0.4135168
0.4136079
0.4134261
0.4120697
0.4084176
0.4134411
0.4143712
0.4144686
0.4142904
0.4129381
0.4085124
0.413529
0.4144611
0.4145597
0.4143818
0.4130309
0.4083253
0.4133526
0.4142812
0.4143775
0.4141991
0.4128455
0.4069431
0.411973
0.4128885
0.4129769
0.4127919
0.4114336
0.4050167
0.4091262
0.4089174
0.4136949
0.4097677
0.4105722
0.4143422
0.4151413
0.4106608
0.4107421
0.4152282
0.4153117
0.4107356
0.4106224
0.4153089
0.4152151
0.410528
0.4097589
0.4151303
0.4143938
0.4091617
0.4053143
0.4138024
0.4093386
0.4095185
0.4142965
0.410278
0.4150358
0.4149455
0.4157469
0.4156857
0.4164909
0.4158342
0.4159191
0.4165793
0.4166673
0.415917
0.4158256
0.4166661
0.4165775
0.4157417
0.4150079
0.4164945
0.415764
0.4144168
0.4099591
0.415175
0.410747
0.410366
0.4151181
0.410459
0.4152024
0.4157677
0.4165735
0.4158516
0.416658
0.4166622
0.4167508
0.4167471
0.4168365
0.4167497
0.4166613
0.4168356
0.4167475
0.4165784
0.4158484
0.4166646
0.4159353
0.4152601
0.4108396
0.415348
0.4109381
0.4104588
0.4152023
0.4103646
0.4151169
0.4158514
0.4166578
0.4157666
0.4165724
0.4167469
0.4168363
0.4166611
0.4167497
0.4168355
0.4167473
0.4167487
0.4166603
0.4166644
0.4159351
0.4165773
0.4158471
0.4153478
0.4109377
0.4152587
0.4108367
0.410276
0.4150343
0.4095137
0.4142924
0.4156842
0.4164894
0.4149416
0.4157431
0.4165779
0.4166658
0.4158304
0.4159153
0.4166646
0.416576
0.4159132
0.4158218
0.416493
0.4157622
0.4157379
0.4150037
0.4151731
0.4107432
0.4144122
0.4099517
0.4089106
0.4136892
0.404997
0.4091087
0.4143366
0.4151358
0.4097505
0.410555
0.4152227
0.4153063
0.4106437
0.4107248
0.4153035
0.4152096
0.4107184
0.4106052
0.4151248
0.414388
0.4105108
0.4097414
0.4137962
0.4093293
0.4091439
0.4052955
0.4071648
0.40695
0.4113135
0.4086366
0.4119789
0.4128021
0.4088137
0.4128942
0.4129849
0.4086933
0.4129826
0.4128865
0.4078183
0.4127977
0.4120448
0.4034162
0.41144
0.4073883
0.4119285
0.4083273
0.4126838
0.4134239
0.4133542
0.414188
0.4136095
0.4142827
0.4143795
0.4135142
0.414379
0.4142881
0.4126748
0.4142006
0.4134513
0.4080208
0.4128476
0.408823
0.4127704
0.4085126
0.4128586
0.4142761
0.4135291
0.4143655
0.4144689
0.4144612
0.4145599
0.4143779
0.4145599
0.4144695
0.4135414
0.414382
0.4136335
0.4089194
0.4130311
0.4090217
0.4128584
0.4084162
0.4127693
0.4143653
0.4134399
0.414275
0.4145598
0.4143701
0.4144677
0.4144694
0.4144674
0.4143767
0.4136333
0.4142892
0.41354
0.4090213
0.4129365
0.4089166
0.4126821
0.4075544
0.4119243
0.4141865
0.4125926
0.4134199
0.4143779
0.4135128
0.4136055
0.4142865
0.4136039
0.4135102
0.4134495
0.4134221
0.4126704
0.4088192
0.412065
0.4080134
0.4113075
0.4030948
0.4071462
0.4127964
0.4077998
0.4086183
0.4129792
0.40871
0.4087954
0.4128808
0.4087893
0.4086749
0.4120387
0.4085784
0.4077998
0.4073789
0.4071936
0.4033962
0.4084016
0.4047142
0.4065012
0.4064201
0.411993
0.4095968
0.4100051
0.4115859
0.4125246
0.4104947
0.4105427
0.4124773
0.4125239
0.4105613
0.4105388
0.4125447
0.4121817
0.4103388
0.4101835
0.4123329
0.4100108
0.4089409
0.408012
0.4109499
0.4117596
0.409315
0.4113772
0.4097002
0.4154105
0.4146178
0.4150272
0.4150006
0.4159408
0.4155093
0.4155565
0.4158933
0.4159494
0.4155813
0.4155637
0.4159666
0.4156289
0.4153869
0.4152414
0.4157739
0.4134615
0.4140186
0.4130718
0.4144074
0.4122815
0.4101795
0.4122297
0.4102329
0.4159212
0.4154619
0.4158719
0.4155111
0.4164545
0.4163567
0.4164048
0.4164063
0.4164653
0.4164322
0.4164154
0.4164821
0.4161459
0.4162408
0.416096
0.4162907
0.4139873
0.4148777
0.4139357
0.4149283
0.4123095
0.4102757
0.4123226
0.4102621
0.4159476
0.4155498
0.4159597
0.4155376
0.4164812
0.4164452
0.4164935
0.4164329
0.4164922
0.4165213
0.4165046
0.416509
0.4161727
0.4163298
0.4161851
0.4163175
0.4140148
0.414968
0.4140278
0.4149554
0.411994
0.4100868
0.4121398
0.4099381
0.415643
0.4153754
0.4157856
0.4152328
0.4161744
0.4162699
0.4163178
0.4161267
0.4161839
0.4163449
0.416328
0.4162009
0.4158641
0.4161533
0.4160085
0.416009
0.4136983
0.4147888
0.4138453
0.4146432
0.409811
0.4086982
0.4107617
0.40776
0.4134359
0.4139967
0.4144055
0.4130282
0.4139648
0.414887
0.4149341
0.4139178
0.4139674
0.4149575
0.4149393
0.4139866
0.4136352
0.4147599
0.4146134
0.4137834
0.4114631
0.4133884
0.4124412
0.4124078
0.404758
0.4046931
0.4064825
0.4082287
0.4096157
0.4100264
0.4087797
0.4105236
0.4105748
0.4087885
0.4106054
0.4105882
0.408445
0.4104058
0.4102585
0.4062912
0.4090367
0.4081091
0.4094092
0.407942
0.4097884
0.4130132
0.4129779
0.4133956
0.4135697
0.4139017
0.4139552
0.4135945
0.413995
0.413982
0.4132842
0.4138151
0.4136735
0.4111362
0.4124599
0.4115272
0.4102555
0.4084704
0.4103063
0.4138604
0.4134904
0.4139098
0.414426
0.4144216
0.4144765
0.4144563
0.4145196
0.4145074
0.4141492
0.4143416
0.4142003
0.4120091
0.41299
0.4120619
0.4103466
0.4084992
0.4103341
0.4139486
0.4135172
0.4139367
0.4145163
0.414449
0.4145041
0.4145477
0.4145475
0.4145354
0.4142407
0.4143695
0.4142283
0.4121037
0.4130182
0.4120906
0.4101655
0.4081785
0.4100218
0.4137716
0.4132109
0.4136294
0.4143356
0.4141376
0.4141915
0.4143651
0.4142325
0.4142199
0.4140578
0.4140536
0.4139122
0.4119151
0.4126989
0.411767
0.4087937
0.4060104
0.4078528
0.4123878
0.4110156
0.4114283
0.4129407
0.4119265
0.4119781
0.4129628
0.4120117
0.4119963
0.4126492
0.4118209
0.4116765
0.4104999
0.4104589
0.4095272
0.4099155
0.4089462
0.4079433
0.4109338
0.4098201
0.4087053
0.4077696
0.4107684
0.4113523
0.4133436
0.4123804
0.4123093
0.4093749
0.4055706
0.4067395
0.4066698
0.4073183
0.4072437
0.4087578
0.4109022
0.4097133
0.4081445
0.4112747
0.4087298
0.4119021
0.4102771
0.4108242
0.4094956
0.4079965
0.4111375
0.4085732
0.4117622
0.410202
0.4123713
0.414331
0.4127467
0.4126836
0.4133799
0.4133173
0.4117404
0.4122421
0.4104071
0.4102564
0.412391
0.4134438
0.4140026
0.4130363
0.4144113
0.4136922
0.4148076
0.4138403
0.4146598
0.4129437
0.4103543
0.410172
0.4119162
0.4107576
0.4125427
0.4123185
0.4131895
0.4111553
0.4104217
0.4127139
0.4110061
0.4133365
0.4125656
0.4144245
0.414977
0.4133912
0.4147462
0.4140233
0.4153792
0.413794
0.4146694
0.4157703
0.4141884
0.4149934
0.4148156
0.4156242
0.4140407
0.4125471
0.4105704
0.4105653
0.4125526
0.4139728
0.4148929
0.4139258
0.4149399
0.4139954
0.4149695
0.4140016
0.4149628
0.4134694
0.4112424
0.4107103
0.4128011
0.4112904
0.4134221
0.4128498
0.4134925
0.4113196
0.4107348
0.4128822
0.4113136
0.4134993
0.4128743
0.4149476
0.4158551
0.4142752
0.4152771
0.4149006
0.4159023
0.4143238
0.414971
0.4159341
0.4143573
0.4153023
0.4149785
0.4159261
0.4143486
0.4124872
0.4104375
0.4104998
0.4124279
0.4139754
0.4149634
0.4139947
0.4149451
0.4139407
0.4148563
0.4138837
0.4149117
0.4134749
0.4113119
0.4107163
0.4128774
0.4112913
0.4134933
0.4128602
0.4134413
0.4111951
0.4106808
0.4127731
0.4112546
0.4133857
0.4128277
0.4149569
0.4159301
0.4143536
0.4152946
0.4149736
0.4159144
0.4143381
0.4149254
0.4158327
0.4142557
0.4152655
0.4148723
0.4158843
0.4143077
0.4119402
0.4095492
0.4099373
0.4115562
0.4136433
0.4147658
0.4137915
0.4146194
0.4134049
0.4140017
0.413023
0.4143826
0.4131497
0.4110998
0.4103782
0.4126835
0.4109488
0.4132953
0.4125392
0.4129153
0.4103267
0.4101386
0.4119325
0.4107079
0.4125404
0.4123059
0.4146428
0.4157472
0.4141691
0.4149911
0.414785
0.4156069
0.4140281
0.4144119
0.4150072
0.4134277
0.4147631
0.4140399
0.4153779
0.4137983
0.4086126
0.4049856
0.4066762
0.4067431
0.4114727
0.4133952
0.4124168
0.4124486
0.4100633
0.4090978
0.4081349
0.4110349
0.4110208
0.4097283
0.4082505
0.41134
0.4088148
0.4119467
0.4104172
0.4095949
0.4058505
0.4069412
0.4070202
0.4075013
0.4075763
0.4089974
0.4125165
0.4144145
0.4128361
0.4128735
0.4134471
0.413482
0.411909
0.4110758
0.4098967
0.4083896
0.4114354
0.4089479
0.4120368
0.410475
0.413302
0.413957
0.4129203
0.4143392
0.4119968
0.410089
0.4099411
0.4121419
0.4135374
0.4147163
0.414574
0.4136805
0.4127358
0.4100973
0.4117355
0.4098975
0.4123608
0.4104771
0.4121098
0.414291
0.4149329
0.4132831
0.4146698
0.4139172
0.4153068
0.413656
0.4129675
0.4108587
0.4101336
0.4124813
0.4107138
0.4131084
0.4123409
0.4145204
0.4156733
0.4148983
0.4140234
0.4155355
0.4146591
0.4138851
0.4156595
0.4154239
0.4152759
0.4158077
0.4156454
0.4153772
0.4152353
0.4157873
0.4158947
0.4161856
0.4160432
0.4160368
0.4163582
0.4155803
0.4153507
0.4153196
0.4159833
0.4159548
0.4157255
0.416604
0.416375
0.4155985
0.4161228
0.4162288
0.4167506
0.4159739
0.4165871
0.4163209
0.4155483
0.4160921
0.4161834
0.4167247
0.4159545
0.4168332
0.417118
0.4163527
0.4163413
0.4169801
0.416971
0.4162034
0.4159643
0.4155869
0.4155797
0.4159718
0.4161768
0.4162717
0.4161291
0.4163196
0.4162006
0.4163515
0.4162083
0.4163436
0.4168837
0.4164601
0.4158835
0.4162105
0.4165075
0.416836
0.4162602
0.4169081
0.4165401
0.4159092
0.4162967
0.4165316
0.4169169
0.4162863
0.4171137
0.4172039
0.4164408
0.4166297
0.4170657
0.4172522
0.4164909
0.4171383
0.4172863
0.4165279
0.4166564
0.4171475
0.417277
0.4165173
0.4159172
0.4154764
0.4155311
0.415863
0.4161863
0.4163466
0.4162033
0.4163298
0.4161543
0.416244
0.4161004
0.4162979
0.4168993
0.4165366
0.4159034
0.4162949
0.4165217
0.4169139
0.4162818
0.4168705
0.4164417
0.4158751
0.416205
0.4164923
0.4168204
0.4162541
0.4171304
0.4172837
0.4165266
0.4166534
0.4171447
0.4172696
0.4165137
0.4171018
0.4171913
0.4164375
0.4166261
0.4170519
0.4172411
0.4164862
0.4153932
0.4146251
0.4150054
0.4150133
0.4158666
0.4161551
0.4160115
0.4160104
0.4156312
0.4153958
0.4152516
0.4157751
0.4165976
0.4163572
0.4156036
0.4161217
0.4162179
0.4167363
0.415984
0.4163701
0.4156199
0.4153764
0.4153894
0.4159898
0.4160007
0.4157574
0.4168297
0.4171077
0.4163544
0.4163573
0.4169682
0.4169694
0.416217
0.4166025
0.4163739
0.4156231
0.4161312
0.4162336
0.4167425
0.4159907
0.4120503
0.4097243
0.4116585
0.4101201
0.4137018
0.4147912
0.4146463
0.413848
0.4122935
0.4105198
0.4103677
0.4124422
0.4144779
0.4150276
0.413488
0.4147989
0.4140952
0.4154091
0.4138714
0.4130363
0.4105153
0.4120509
0.4103512
0.4126509
0.4109062
0.412437
0.4147132
0.4157839
0.4150334
0.4142506
0.4156428
0.4148558
0.4141074
0.4132747
0.4113
0.4105963
0.4128222
0.4111502
0.41342
0.4126762
0.413817
0.4148014
0.4137666
0.414851
0.4123102
0.410276
0.4102628
0.4123228
0.4138447
0.4148903
0.4148783
0.413857
0.4132428
0.4109469
0.412566
0.4104177
0.4131932
0.4109989
0.4126154
0.4147902
0.4157553
0.4141064
0.4151655
0.414742
0.4158027
0.4141544
0.4132701
0.4110404
0.4104465
0.4126544
0.4110278
0.413282
0.4126425
0.4148165
0.4158397
0.4151912
0.414192
0.4158285
0.414828
0.4141806
0.4161708
0.4162704
0.4161216
0.4163198
0.4159481
0.41555
0.4155382
0.4159599
0.4161978
0.4163588
0.4163469
0.4162096
0.4168532
0.4164025
0.4161742
0.4158149
0.4168062
0.4164497
0.4162214
0.4170997
0.4171999
0.4164236
0.416621
0.4170526
0.4172472
0.416471
0.4168788
0.4164864
0.4158405
0.4162581
0.4164752
0.4168899
0.4162471
0.4171253
0.417284
0.4166468
0.4165078
0.4172729
0.4171365
0.4164967
0.4164787
0.416437
0.416429
0.4164868
0.4164818
0.4164454
0.4164335
0.4164937
0.4165061
0.4165262
0.4165142
0.4165181
0.4173819
0.417286
0.4167128
0.4167099
0.4173344
0.4173334
0.4167607
0.4174071
0.4173689
0.4167397
0.4167989
0.4173594
0.4174166
0.4167877
0.4174078
0.4173703
0.4167359
0.416798
0.4173591
0.417419
0.4167867
0.417433
0.4174539
0.4168251
0.4168252
0.4174426
0.4174443
0.4168139
0.4164335
0.4163297
0.4163836
0.4163796
0.4164927
0.4165215
0.4165096
0.4165048
0.4164609
0.416419
0.416407
0.4164729
0.4174002
0.4173663
0.4167371
0.4167979
0.4173523
0.4174142
0.4167854
0.4173718
0.4172742
0.4167099
0.4167097
0.4173239
0.4173221
0.4167582
0.4174262
0.4174515
0.4168242
0.4168232
0.4174402
0.4174376
0.4168118
0.4173978
0.4173595
0.4167361
0.416796
0.4173482
0.4174092
0.4167846
0.4159107
0.4154818
0.4158608
0.4155319
0.4161733
0.41633
0.4163181
0.4161853
0.4159381
0.4155714
0.4155594
0.4159501
0.4171003
0.4171906
0.4164413
0.4166268
0.4170524
0.4172385
0.4164897
0.4168736
0.4164574
0.4162153
0.4158972
0.4168255
0.4165057
0.4162638
0.4171264
0.4172759
0.4166532
0.4165275
0.4172646
0.4171377
0.4165161
0.4168997
0.4165434
0.4159238
0.4163017
0.416532
0.4169111
0.4162903
0.412585
0.4106127
0.412532
0.4106677
0.4140156
0.4149683
0.4149561
0.4140281
0.4126144
0.410712
0.4106985
0.4126273
0.4149909
0.415868
0.414337
0.4153094
0.4149412
0.4159168
0.4143872
0.4135591
0.4113914
0.4129109
0.4108943
0.4135077
0.4114453
0.4129629
0.4150182
0.415955
0.4153364
0.4144268
0.4159435
0.4150301
0.4144148
0.4135875
0.4114885
0.4109248
0.4130042
0.4114754
0.4135999
0.4129916
0.4138442
0.4148901
0.4138568
0.4148777
0.4122804
0.4101779
0.4102318
0.4122283
0.413816
0.4148
0.4148501
0.4137652
0.4132695
0.4110402
0.4126542
0.4104459
0.4132819
0.4110271
0.412642
0.414816
0.4158396
0.4141919
0.4151908
0.4148278
0.415828
0.4141802
0.4132419
0.4109455
0.4104168
0.4125648
0.4109979
0.4131919
0.4126145
0.4147893
0.4157541
0.4151647
0.4141052
0.4158019
0.4147408
0.4141536
0.4161973
0.4163586
0.4162095
0.4163464
0.4159202
0.4154605
0.4155102
0.4158706
0.4161699
0.4162692
0.416319
0.4161203
0.4168783
0.4164862
0.416258
0.4158401
0.4168898
0.4164748
0.4162466
0.4171249
0.4172839
0.4165076
0.4166464
0.4171363
0.4172724
0.4164963
0.4168525
0.4164014
0.4158142
0.4161732
0.4164489
0.4168051
0.4162207
0.417099
0.4171988
0.4166203
0.4164226
0.4172464
0.4170515
0.4164702
0.4165055
0.416526
0.4165179
0.4165137
0.4164536
0.4163555
0.4164054
0.4164035
0.4164779
0.4164357
0.416486
0.4164277
0.4174073
0.4173702
0.4167979
0.4167354
0.4174189
0.4173587
0.4167863
0.4174325
0.4174537
0.4168251
0.4168247
0.4174441
0.4174421
0.4168135
0.4173812
0.4172849
0.4167092
0.4167118
0.4173326
0.4173333
0.41676
0.4174063
0.4173678
0.4167982
0.4167387
0.4174159
0.4173583
0.416787
0.4164603
0.4164188
0.4164727
0.4164064
0.4164644
0.4164309
0.4164813
0.4164141
0.4164326
0.4163284
0.4163787
0.4163822
0.4174258
0.4174513
0.416823
0.4168238
0.4174374
0.4174397
0.4168113
0.4173974
0.4173593
0.4167959
0.4167357
0.417409
0.4173477
0.4167842
0.4173994
0.4173652
0.4167972
0.4167361
0.4174134
0.4173512
0.4167847
0.417371
0.4172731
0.416709
0.4167088
0.4173213
0.4173228
0.4167575
0.4159375
0.4155712
0.4159499
0.4155587
0.416145
0.4162395
0.4162898
0.4160947
0.4159097
0.4154802
0.4155308
0.4158594
0.4171259
0.4172757
0.4165273
0.4166527
0.4171376
0.4172641
0.4165156
0.4168992
0.4165432
0.4163016
0.4159233
0.4169109
0.4165314
0.4162898
0.4170995
0.4171895
0.4166261
0.4164401
0.4172377
0.4170512
0.4164889
0.4168727
0.416456
0.4158963
0.4162141
0.4165047
0.4168243
0.416263
0.4126134
0.4107116
0.412627
0.4106973
0.4139858
0.414876
0.4149271
0.4139337
0.4125833
0.4106098
0.4106657
0.4125296
0.4150174
0.4159548
0.4144266
0.4153358
0.4150298
0.4159428
0.4144141
0.4135866
0.4114881
0.4130039
0.4109236
0.4135996
0.4114742
0.4129908
0.4149897
0.4158665
0.4153084
0.4143352
0.4159158
0.4149394
0.414386
0.4135576
0.4113885
0.4108923
0.4129088
0.4114433
0.4135055
0.4129614
0.4135347
0.4147144
0.4136786
0.4145715
0.4117559
0.4093099
0.4096964
0.4113723
0.4132985
0.4139526
0.4143359
0.4129156
0.4129649
0.4108567
0.4124795
0.4101309
0.4131066
0.410711
0.4123385
0.414518
0.4156717
0.4140218
0.4148962
0.4146574
0.4155333
0.4138828
0.4127325
0.4100924
0.409894
0.4117311
0.4104735
0.4123562
0.4121065
0.4142878
0.4149288
0.4146669
0.4132788
0.4153038
0.4139129
0.413653
0.4158923
0.4161838
0.4160351
0.4160408
0.4154072
0.4146134
0.4149973
0.4150229
0.4156563
0.4154196
0.4158045
0.4152717
0.416585
0.4163194
0.4160906
0.4155462
0.4167231
0.4161813
0.4159525
0.4168311
0.4171165
0.4163398
0.4163507
0.4169694
0.416978
0.4162014
0.4163553
0.4155763
0.4153168
0.4153468
0.4159519
0.4159794
0.4157227
0.4166012
0.4163711
0.41612
0.4155947
0.4167478
0.4162249
0.4159711
0.4161982
0.4163497
0.4163419
0.4162059
0.4159376
0.415505
0.4158902
0.4155522
0.4159611
0.4155826
0.4159686
0.4155755
0.4171116
0.4172024
0.4166282
0.4164388
0.4172506
0.4170636
0.4164889
0.4171363
0.4172848
0.4166549
0.416526
0.4172755
0.4171454
0.4165153
0.4168809
0.4164562
0.4162078
0.4158797
0.4168331
0.4165036
0.4162575
0.4169052
0.4165362
0.4162939
0.4159054
0.4169141
0.4165277
0.4162836
0.4161519
0.4162422
0.4162961
0.4160979
0.4159462
0.415577
0.4159634
0.4155594
0.4159139
0.4154721
0.4158598
0.4155267
0.4171283
0.4172822
0.4166519
0.4165246
0.4172681
0.4171426
0.4165117
0.4170997
0.4171898
0.4166246
0.4164355
0.4172396
0.4170498
0.4164842
0.4168965
0.4165327
0.4162922
0.4158996
0.4169111
0.4165178
0.416279
0.4168676
0.4164378
0.4162023
0.4158713
0.4168175
0.4164884
0.4162513
0.4156286
0.4153937
0.4157731
0.4152488
0.4156255
0.4153825
0.4157707
0.415237
0.4153898
0.4146203
0.4150097
0.4150008
0.4168275
0.4171061
0.4163557
0.4163523
0.4169678
0.416966
0.4162149
0.4166002
0.4163721
0.4161296
0.4156208
0.4167408
0.4162312
0.4159885
0.4165947
0.4163532
0.4161189
0.4155997
0.4167335
0.4162139
0.4159812
0.416367
0.4156156
0.4153863
0.4153724
0.4159975
0.4159857
0.4157545
0.4122893
0.4105159
0.4124389
0.4103628
0.413457
0.4140135
0.4144034
0.4130661
0.4120452
0.4097167
0.410114
0.411652
0.41471
0.4157819
0.4142483
0.4150308
0.4148534
0.4156401
0.4141044
0.4132709
0.4112962
0.4128194
0.4105915
0.4134171
0.4111454
0.4126725
0.4144739
0.415023
0.4147955
0.4134829
0.4154056
0.41409
0.4138675
0.4130315
0.4105078
0.4103452
0.4120449
0.4109003
0.4126448
0.4124323
0.4113437
0.4133375
0.412303
0.4123721
0.4083895
0.4046974
0.4064071
0.4064858
0.4099041
0.4089323
0.4109228
0.407929
0.4108153
0.4094888
0.4111312
0.4079869
0.4117558
0.4085637
0.4101929
0.412363
0.4143253
0.4126776
0.4127385
0.4133114
0.4133719
0.4117319
0.4093625
0.405552
0.4066559
0.4067202
0.4072303
0.4073011
0.4087446
0.4108907
0.4096983
0.4112627
0.4081264
0.411891
0.4087141
0.4102646
0.4136843
0.4148018
0.4146539
0.4138323
0.4119823
0.4095831
0.4115751
0.4099916
0.4122314
0.4103935
0.4123804
0.4102428
0.4144168
0.4149714
0.4147407
0.4133832
0.4153737
0.4140155
0.4137861
0.4146618
0.4157649
0.4149879
0.4141806
0.4156188
0.414808
0.4140328
0.412933
0.4103395
0.4119045
0.4101548
0.4125319
0.4107429
0.4123068
0.4131787
0.4111405
0.4127024
0.4104046
0.4133258
0.4109914
0.412554
0.4139875
0.4149637
0.414957
0.4139936
0.4125138
0.4104811
0.4124666
0.410529
0.4125363
0.4105566
0.4125419
0.4105516
0.41494
0.4158497
0.4152717
0.4142673
0.4158969
0.4148929
0.4143159
0.4149634
0.4159287
0.4152969
0.4143494
0.4159206
0.4149708
0.4143407
0.4134586
0.4112276
0.4127895
0.4106932
0.4134113
0.4112757
0.4128382
0.4134818
0.4113047
0.4128706
0.4107176
0.4134885
0.4112988
0.4128627
0.4139326
0.4148504
0.4149059
0.4138756
0.4125131
0.4105474
0.4125339
0.4105249
0.4124764
0.4104236
0.412417
0.4104858
0.4149492
0.4159246
0.4152892
0.4143458
0.415909
0.414966
0.4143303
0.4149177
0.4158273
0.4152601
0.4142478
0.4158788
0.4148646
0.4142999
0.4134641
0.4112971
0.4128657
0.4106991
0.4134825
0.4112765
0.4128486
0.4134305
0.4111802
0.4127615
0.4106635
0.4133748
0.4112397
0.4128161
0.4133965
0.4139953
0.4143765
0.4130144
0.4121707
0.4103248
0.412322
0.4101695
0.4119291
0.4095347
0.4115448
0.4099231
0.414635
0.4157417
0.4149856
0.4141612
0.4156014
0.4147772
0.4140201
0.414404
0.4150013
0.4147575
0.4134195
0.4153722
0.4140318
0.4137902
0.4131388
0.4110849
0.4126719
0.410361
0.4132844
0.4109338
0.4125275
0.4129043
0.4103114
0.4119205
0.4101213
0.4125292
0.4106928
0.4122941
0.4100527
0.4090883
0.4110266
0.408123
0.4099984
0.4089261
0.4109382
0.4079966
0.4085992
0.4049679
0.4067283
0.4066598
0.4125074
0.4144083
0.4128667
0.4128275
0.4134751
0.4134386
0.4118998
0.4110657
0.4098874
0.4114276
0.4083778
0.412029
0.4089362
0.4104648
0.4110087
0.4097128
0.4113278
0.4082324
0.4119351
0.4087988
0.4104044
0.4095818
0.4058325
0.4070049
0.406923
0.4075615
0.4074847
0.4089837
0.4061681
0.4089589
0.4079485
0.4060203
0.4088002
0.4078622
0.4103626
0.410288
0.4093428
0.4084832
0.4104323
0.4102799
0.4110241
0.4123936
0.4114367
0.4118433
0.4126489
0.4116908
0.4088057
0.41061
0.4106011
0.4119348
0.4129465
0.4119864
0.4120233
0.4129742
0.4120134
0.4087525
0.4104989
0.4105548
0.41202
0.4129685
0.4120046
0.4119197
0.4129385
0.4119732
0.4082021
0.4096409
0.41002
0.4118293
0.412655
0.4116849
0.4110723
0.4124208
0.4114493
0.4049791
0.405051
0.4067493
0.410468
0.4105069
0.4095368
0.4064261
0.409136
0.4081689
0.4108997
0.4123083
0.4112785
0.4081812
0.4101673
0.4100243
0.4125429
0.4116545
0.4115131
0.4132698
0.4138081
0.4136531
0.4132131
0.4137732
0.4136315
0.4140454
0.414032
0.4138899
0.413598
0.413996
0.413984
0.4141397
0.4143372
0.4141936
0.4142354
0.4143669
0.414223
0.4135653
0.4139028
0.4139533
0.4142346
0.4143667
0.414222
0.4141433
0.4143383
0.4141935
0.4130506
0.4130648
0.4134403
0.4140557
0.4140594
0.4139143
0.4133059
0.4138264
0.4136812
0.4097656
0.4084189
0.4101589
0.4127015
0.4119175
0.4117701
0.4086691
0.4105544
0.4104045
0.4117415
0.4128197
0.4117912
0.4084998
0.4103468
0.4103346
0.412847
0.4118306
0.4118189
0.4141196
0.4143261
0.4141693
0.4135176
0.4139487
0.4139371
0.4143538
0.4142085
0.4141969
0.414456
0.4145197
0.4145067
0.4144494
0.4145164
0.4145045
0.414548
0.4145468
0.4145349
0.4144281
0.4144291
0.4144792
0.4145479
0.4145478
0.4145358
0.4144575
0.4145197
0.4145076
0.4139162
0.4135928
0.4139674
0.41437
0.4142408
0.4142287
0.4136214
0.4140079
0.4139959
0.4106479
0.408976
0.4107023
0.4130188
0.412104
0.4120914
0.4090079
0.4107459
0.4107328
0.4118305
0.4128465
0.4118184
0.4084694
0.4102542
0.4103054
0.4128189
0.4117403
0.4117904
0.4142083
0.4143534
0.4141964
0.4134896
0.4138592
0.413909
0.4143253
0.4141185
0.4141686
0.4145466
0.4145476
0.4145344
0.4144208
0.4144249
0.4144757
0.414519
0.4144549
0.4145059
0.4145195
0.4144571
0.4145072
0.4145188
0.4144552
0.4145066
0.4144283
0.414427
0.4144784
0.4140078
0.4136209
0.4139954
0.4143407
0.414148
0.4141995
0.4135919
0.413915
0.4139666
0.4107456
0.4090067
0.4107319
0.4129889
0.4120073
0.4120607
0.408974
0.4106457
0.4107008
0.4116528
0.4125406
0.4115108
0.4079384
0.4094046
0.4097851
0.4123052
0.4108954
0.4112754
0.4140304
0.4140433
0.4138877
0.4129749
0.4130092
0.4133926
0.4138052
0.4132658
0.4136502
0.4143653
0.4142332
0.4142209
0.4138988
0.4135657
0.4139523
0.4139931
0.4135941
0.4139812
0.4143367
0.4141411
0.4141914
0.413992
0.4135905
0.4139792
0.4138999
0.4135613
0.4139504
0.4138247
0.4133035
0.4136789
0.4138121
0.4132801
0.4136706
0.4130615
0.4130464
0.4134372
0.4105514
0.4086644
0.4104007
0.4124564
0.411131
0.4115232
0.408413
0.4097595
0.4101541
0.4102818
0.4103539
0.4093339
0.4046788
0.4047382
0.4064687
0.408946
0.406149
0.4079353
0.4126431
0.411835
0.4116824
0.4096031
0.4082104
0.4100139
0.4104198
0.4084649
0.4102674
0.4129684
0.412015
0.412005
0.4105111
0.4087614
0.4105623
0.4105975
0.4087873
0.4105886
0.4129327
0.4119114
0.4119648
0.4105929
0.4087701
0.4105758
0.4104864
0.4087341
0.4105423
0.4124149
0.4110636
0.4114408
0.4103933
0.4084267
0.410246
0.4096281
0.4081837
0.4100074
0.409128
0.4064141
0.4081584
0.4090236
0.406272
0.4080955
0.4050352
0.4049594
0.4067348
)
;

boundaryField
{
    solid_to_air
    {
        type            zeroGradient;
    }
}


// ************************************************************************* //
