/*--------------------------------*- C++ -*----------------------------------*\
| =========                 |                                                 |
| \\      /  F ield         | OpenFOAM: The Open Source CFD Toolbox           |
|  \\    /   O peration     | Version:  2506                                  |
|   \\  /    A nd           | Website:  www.openfoam.com                      |
|    \\/     M anipulation  |                                                 |
\*---------------------------------------------------------------------------*/
FoamFile
{
    version     2.0;
    format      ascii;
    arch        "LSB;label=32;scalar=64";
    class       volScalarField;
    location    "60/panel";
    object      T;
}
// * * * * * * * * * * * * * * * * * * * * * * * * * * * * * * * * * * * * * //

dimensions      [0 0 0 1 0 0 0];

internalField   nonuniform List<scalar> 
119440
(
300.1058
300.105
300.1002
300.1001
300.1018
300.1016
300.1003
300.1007
300.1011
300.1013
300.1007
300.1003
300.1005
300.1006
300.1946
300.1014
300.0851
300.1006
300.0961
300.0842
300.081
300.0961
300.0974
300.0809
300.0805
300.0972
300.0962
300.0805
300.0804
300.0965
300.0968
300.0804
300.0804
300.0969
300.0965
300.0804
300.0805
300.0962
300.0964
300.0805
300.0815
300.0966
300.1875
300.0817
300.1608
300.0845
300.0764
300.0836
300.0803
300.0756
300.0723
300.0803
300.0799
300.0722
300.0717
300.0798
300.0797
300.0717
300.0716
300.0797
300.0798
300.0716
300.0716
300.0798
300.0799
300.0716
300.0718
300.0799
300.0809
300.0719
300.0733
300.0811
300.1607
300.0735
300.1493
300.0759
300.0697
300.0751
300.0718
300.069
300.0658
300.0718
300.0713
300.0657
300.0651
300.0712
300.0711
300.0651
300.065
300.0711
300.0712
300.065
300.0651
300.0712
300.0714
300.0651
300.0654
300.0714
300.0728
300.0654
300.0671
300.0731
300.1482
300.0674
300.1391
300.0693
300.0642
300.0686
300.0654
300.0635
300.0605
300.0654
300.0648
300.0604
300.0598
300.0648
300.0646
300.0598
300.0597
300.0646
300.0647
300.0596
300.0597
300.0647
300.065
300.0597
300.0601
300.0651
300.0668
300.0602
300.0621
300.0671
300.1377
300.0624
300.1278
300.0639
300.0594
300.0632
300.0602
300.0588
300.0559
300.0601
300.0595
300.0559
300.0552
300.0595
300.0593
300.0552
300.0551
300.0593
300.0594
300.0551
300.0552
300.0594
300.0598
300.0552
300.0557
300.0599
300.0618
300.0558
300.0577
300.0621
300.1268
300.058
300.1198
300.0591
300.055
300.0585
300.0557
300.0545
300.0519
300.0556
300.055
300.0518
300.0512
300.055
300.0548
300.0512
300.051
300.0548
300.0549
300.051
300.0511
300.0549
300.0554
300.0512
300.0517
300.0555
300.0575
300.0518
300.0538
300.0578
300.1196
300.0541
300.1125
300.0548
300.051
300.0542
300.0516
300.0506
300.0481
300.0515
300.0509
300.048
300.0475
300.0509
300.0508
300.0474
300.0473
300.0508
300.0509
300.0473
300.0475
300.0509
300.0515
300.0475
300.0481
300.0516
300.0536
300.0482
300.0502
300.0539
300.1119
300.0505
300.1056
300.0508
300.0473
300.0503
300.0479
300.0469
300.0446
300.0478
300.0472
300.0446
300.044
300.0472
300.0471
300.044
300.0439
300.0471
300.0472
300.0439
300.0441
300.0473
300.0479
300.0441
300.0447
300.048
300.05
300.0448
300.0468
300.0503
300.1047
300.0471
300.0987
300.0471
300.0438
300.0466
300.0444
300.0434
300.0413
300.0443
300.0438
300.0413
300.0408
300.0438
300.0437
300.0408
300.0407
300.0437
300.0439
300.0407
300.0409
300.0439
300.0445
300.041
300.0416
300.0446
300.0466
300.0417
300.0436
300.0469
300.0981
300.0439
300.0914
300.0436
300.0406
300.0432
300.0412
300.0402
300.0383
300.0411
300.0406
300.0383
300.0379
300.0406
300.0405
300.0379
300.0378
300.0405
300.0407
300.0378
300.038
300.0408
300.0414
300.0381
300.0387
300.0415
300.0434
300.0388
300.0407
300.0437
300.091
300.0409
300.0857
300.0404
300.0376
300.04
300.0381
300.0373
300.0357
300.0381
300.0377
300.0357
300.0354
300.0377
300.0376
300.0354
300.0354
300.0377
300.0379
300.0354
300.0356
300.0379
300.0385
300.0357
300.0363
300.0386
300.0405
300.0364
300.0382
300.0408
300.0854
300.0384
300.0805
300.0375
300.0531
300.0372
300.0356
300.0525
300.0529
300.0356
300.0353
300.0525
300.0526
300.0353
300.0353
300.0528
300.0513
300.0353
300.0355
300.0516
300.0539
300.0356
300.0362
300.0543
300.0548
300.0363
300.038
300.055
300.0574
300.0383
300.0799
300.0581
300.1025
300.0223
300.026
300.0254
300.0228
300.0221
300.0251
300.025
300.0221
300.022
300.0249
300.0249
300.022
300.0219
300.0249
300.0248
300.0219
300.0219
300.0248
300.0248
300.0219
300.0219
300.0248
300.0248
300.0219
300.0228
300.0251
300.0259
300.0221
300.0188
300.0206
300.0201
300.0193
300.0186
300.0199
300.0199
300.0186
300.0185
300.0198
300.0198
300.0186
300.0185
300.0198
300.0198
300.0185
300.0185
300.0198
300.0198
300.0185
300.0186
300.0198
300.0198
300.0185
300.0196
300.0201
300.0208
300.0189
300.016
300.0174
300.017
300.0164
300.0158
300.0168
300.0168
300.0158
300.0157
300.0167
300.0167
300.0157
300.0157
300.0167
300.0167
300.0157
300.0157
300.0167
300.0167
300.0157
300.0159
300.0167
300.0168
300.0158
300.0169
300.0172
300.0179
300.0162
300.0138
300.015
300.0145
300.0141
300.0135
300.0144
300.0143
300.0136
300.0135
300.0143
300.0143
300.0135
300.0135
300.0143
300.0143
300.0135
300.0135
300.0143
300.0143
300.0135
300.0137
300.0144
300.0145
300.0136
300.0147
300.0149
300.0155
300.0141
300.0119
300.0129
300.0126
300.0122
300.0117
300.0124
300.0124
300.0117
300.0117
300.0123
300.0123
300.0117
300.0117
300.0123
300.0123
300.0117
300.0117
300.0124
300.0124
300.0117
300.012
300.0125
300.0126
300.0118
300.0129
300.013
300.0136
300.0124
300.0103
300.0112
300.0109
300.0105
300.0101
300.0107
300.0107
300.0101
300.0101
300.0107
300.0107
300.0101
300.0101
300.0107
300.0107
300.0101
300.0102
300.0107
300.0107
300.0101
300.0104
300.0109
300.011
300.0103
300.0113
300.0114
300.0119
300.0108
300.0088
300.0096
300.0094
300.009
300.0087
300.0092
300.0092
300.0087
300.0087
300.0092
300.0092
300.0087
300.0087
300.0092
300.0092
300.0087
300.0088
300.0093
300.0093
300.0087
300.009
300.0094
300.0096
300.0089
300.0098
300.0099
300.0104
300.0094
300.0075
300.0082
300.008
300.0077
300.0074
300.0079
300.0079
300.0074
300.0074
300.0079
300.0079
300.0074
300.0074
300.0079
300.0079
300.0074
300.0075
300.0079
300.008
300.0075
300.0078
300.0081
300.0082
300.0077
300.0085
300.0086
300.009
300.0081
300.0063
300.0069
300.0068
300.0065
300.0063
300.0067
300.0067
300.0063
300.0063
300.0067
300.0067
300.0063
300.0063
300.0067
300.0067
300.0063
300.0064
300.0068
300.0068
300.0064
300.0066
300.0069
300.0071
300.0065
300.0073
300.0074
300.0078
300.0069
300.0053
300.0058
300.0057
300.0054
300.0052
300.0056
300.0056
300.0052
300.0053
300.0056
300.0056
300.0052
300.0053
300.0056
300.0057
300.0053
300.0054
300.0057
300.0058
300.0053
300.0056
300.0059
300.006
300.0055
300.0063
300.0063
300.0067
300.0059
300.0044
300.0048
300.0047
300.0045
300.0044
300.0047
300.0047
300.0044
300.0044
300.0047
300.0047
300.0044
300.0044
300.0047
300.0047
300.0044
300.0045
300.0048
300.0048
300.0045
300.0047
300.0049
300.005
300.0046
300.0053
300.0053
300.0057
300.005
300.0037
300.004
300.0039
300.0038
300.0037
300.0039
300.0039
300.0037
300.0037
300.0039
300.0039
300.0037
300.0038
300.0039
300.004
300.0037
300.0038
300.004
300.0041
300.0038
300.004
300.0041
300.0042
300.0039
300.0046
300.0045
300.0048
300.0043
300.3086
300.0319
300.185
300.1081
300.2999
300.288
300.196
300.0178
300.3869
300.1724
300.1012
300.1811
300.0305
300.1836
300.0298
300.1683
300.2862
300.0143
300.1024
300.1709
300.2838
300.0139
300.1809
300.0295
300.1804
300.0297
300.1681
300.2838
300.1023
300.0138
300.2859
300.1676
300.0138
300.18
300.0295
300.1803
300.0294
300.1672
300.284
300.0137
300.1004
300.1675
300.2819
300.0137
300.1799
300.0293
300.1797
300.0294
300.1671
300.2837
300.1007
300.0137
300.2826
300.1669
300.0137
300.1796
300.0293
300.1796
300.0293
300.1668
300.2836
300.0137
300.0998
300.1668
300.2834
300.0136
300.1796
300.0292
300.1794
300.0293
300.1668
300.2816
300.0996
300.0136
300.2823
300.1666
300.0136
300.1792
300.0292
300.1794
300.0292
300.1664
300.2815
300.0136
300.1021
300.1665
300.2824
300.0136
300.1792
300.0291
300.179
300.0292
300.1663
300.2813
300.1021
300.0136
300.2831
300.1662
300.0136
300.1791
300.0291
300.179
300.0292
300.1662
300.2798
300.0136
300.1021
300.1662
300.282
300.0136
300.1791
300.0292
300.1792
300.0292
300.1662
300.2815
300.1021
300.0136
300.2819
300.1663
300.0136
300.1791
300.0292
300.1792
300.0292
300.1663
300.2825
300.0136
300.0998
300.1663
300.2811
300.0136
300.1791
300.0294
300.1795
300.0292
300.1664
300.2833
300.0999
300.0136
300.2819
300.1667
300.0136
300.182
300.0294
300.1797
300.0304
300.1693
300.2829
300.0137
300.1027
300.1669
300.2841
300.0141
300.1833
300.1148
300.3069
300.0319
300.1708
300.3825
300.1039
300.108
300.2886
300.2995
300.0178
300.0926
300.0273
300.1028
300.0239
300.0873
300.1898
300.0105
300.0907
300.0963
300.1713
300.0094
300.0921
300.022
300.0234
300.0881
300.0868
300.0899
300.1583
300.0083
300.1686
300.0088
300.0832
300.0064
300.0076
300.0981
300.0898
300.0073
300.0067
300.0875
300.0222
300.0251
300.0253
300.0222
300.0063
300.0979
300.0072
300.0865
300.0073
300.0873
300.0063
300.0219
300.021
300.0224
300.0205
300.006
300.089
300.0059
300.0818
300.0062
300.0867
300.0057
300.0218
300.0204
300.0217
300.0205
300.0059
300.0858
300.0817
300.0056
300.0865
300.0059
300.0056
300.0063
300.0072
300.0964
300.0865
300.0072
300.0063
300.0865
300.0221
300.025
300.025
300.022
300.0063
300.0966
300.0072
300.0863
300.0072
300.0865
300.0063
300.0217
300.0204
300.0217
300.0203
300.0059
300.0857
300.0056
300.0807
300.0059
300.0857
300.0055
300.0217
300.0203
300.0216
300.0203
300.0059
300.0855
300.0807
300.0055
300.0857
300.0059
300.0055
300.0062
300.0072
300.0957
300.0862
300.0072
300.0062
300.0859
300.022
300.0249
300.0249
300.0219
300.0062
300.0956
300.0071
300.0861
300.0071
300.0859
300.0062
300.0216
300.0203
300.0216
300.0202
300.0058
300.0854
300.0055
300.0803
300.0059
300.0852
300.0055
300.0216
300.0202
300.0215
300.0202
300.0058
300.0853
300.0803
300.0055
300.0852
300.0058
300.0055
300.0062
300.0072
300.0976
300.0861
300.0072
300.0062
300.0863
300.0219
300.0248
300.0248
300.0219
300.0062
300.0976
300.0071
300.0861
300.0072
300.0862
300.0062
300.0215
300.0202
300.0215
300.0202
300.0058
300.0853
300.0055
300.0804
300.0058
300.0854
300.0055
300.0215
300.0202
300.0215
300.0202
300.0058
300.0853
300.0804
300.0055
300.0854
300.0058
300.0055
300.0062
300.0072
300.0976
300.0861
300.0072
300.0062
300.0863
300.0219
300.0248
300.0248
300.0219
300.0062
300.0976
300.0071
300.0862
300.0072
300.0863
300.0062
300.0215
300.0202
300.0215
300.0202
300.0058
300.0853
300.0055
300.0805
300.0058
300.0854
300.0055
300.0215
300.0202
300.0215
300.0202
300.0058
300.0854
300.0805
300.0055
300.0854
300.0058
300.0055
300.0062
300.0071
300.0958
300.0861
300.0071
300.0062
300.0862
300.022
300.025
300.0248
300.022
300.0062
300.0959
300.0072
300.0869
300.0071
300.0863
300.0063
300.0215
300.0202
300.0215
300.0202
300.0058
300.0854
300.0055
300.0807
300.0058
300.0855
300.0055
300.0216
300.0204
300.0217
300.0203
300.0059
300.0862
300.0808
300.0056
300.0855
300.0059
300.0055
300.0066
300.0072
300.0988
300.0871
300.0076
300.0063
300.0896
300.0242
300.1102
300.0274
300.1009
300.0097
300.0999
300.1036
300.1739
300.0108
300.0907
300.0949
300.0224
300.0205
300.0217
300.0212
300.0063
300.0864
300.0056
300.0845
300.0059
300.0889
300.0059
300.0237
300.0965
300.1004
300.0224
300.0091
300.1711
300.0856
300.0908
300.09
300.0944
300.0087
300.0836
300.0216
300.0875
300.0202
300.0789
300.1576
300.0079
300.0804
300.0827
300.1498
300.0075
300.083
300.0186
300.0198
300.0792
300.0784
300.0799
300.142
300.0068
300.149
300.0071
300.0749
300.0051
300.0056
300.0812
300.0795
300.0053
300.0053
300.0772
300.0187
300.0199
300.02
300.0187
300.005
300.081
300.0053
300.0763
300.0053
300.077
300.005
300.0184
300.0178
300.0189
300.0173
300.0048
300.079
300.0048
300.0732
300.005
300.0766
300.0046
300.0184
300.0171
300.0183
300.0172
300.0048
300.0757
300.073
300.0045
300.0765
300.0047
300.0045
300.005
300.0053
300.0801
300.0762
300.0052
300.005
300.0759
300.0186
300.0198
300.0199
300.0186
300.005
300.08
300.0052
300.0757
300.0052
300.0759
300.0049
300.0182
300.0171
300.0183
300.0171
300.0047
300.0757
300.0045
300.0719
300.0047
300.0754
300.0045
300.0182
300.0171
300.0182
300.0171
300.0047
300.0752
300.0719
300.0044
300.0754
300.0047
300.0045
300.0049
300.0052
300.0797
300.0757
300.0052
300.0049
300.0756
300.0185
300.0198
300.0198
300.0185
300.0049
300.0797
300.0052
300.0756
300.0052
300.0756
300.0049
300.0182
300.017
300.0182
300.017
300.0047
300.0752
300.0044
300.0716
300.0047
300.0751
300.0044
300.0182
300.017
300.0181
300.017
300.0047
300.0751
300.0716
300.0044
300.0751
300.0047
300.0044
300.0049
300.0052
300.0798
300.0756
300.0052
300.0049
300.0756
300.0185
300.0198
300.0198
300.0185
300.0049
300.0798
300.0052
300.0757
300.0052
300.0756
300.0049
300.0181
300.017
300.0181
300.017
300.0047
300.0751
300.0044
300.0716
300.0047
300.0751
300.0044
300.0181
300.017
300.0181
300.017
300.0047
300.0751
300.0716
300.0044
300.0751
300.0047
300.0044
300.0049
300.0052
300.0798
300.0757
300.0052
300.0049
300.0757
300.0185
300.0198
300.0198
300.0185
300.0049
300.0798
300.0052
300.0758
300.0052
300.0757
300.0049
300.0181
300.017
300.0181
300.017
300.0047
300.0751
300.0044
300.0717
300.0047
300.0752
300.0044
300.0181
300.017
300.0181
300.017
300.0047
300.0753
300.0717
300.0044
300.0752
300.0047
300.0044
300.005
300.0052
300.0801
300.0758
300.0052
300.0049
300.0761
300.0186
300.02
300.0198
300.0188
300.005
300.0801
300.0053
300.077
300.0052
300.0762
300.005
300.0182
300.017
300.0181
300.0171
300.0047
300.0753
300.0045
300.0722
300.0047
300.0756
300.0045
300.0182
300.0174
300.0184
300.0172
300.0047
300.0765
300.0723
300.0045
300.0756
300.0048
300.0045
300.0054
300.0053
300.084
300.0773
300.0056
300.0051
300.0803
300.0207
300.0959
300.022
300.0922
300.0079
300.085
300.0903
300.1563
300.0083
300.0813
300.0869
300.0192
300.0175
300.0185
300.0182
300.0051
300.0768
300.0046
300.0766
300.0048
300.0798
300.0049
300.0203
300.0883
300.0917
300.0192
300.0076
300.1544
300.0776
300.0833
300.0808
300.0864
300.0072
300.0752
300.0182
300.0787
300.0172
300.0711
300.1404
300.0064
300.0729
300.0744
300.1348
300.0061
300.0747
300.0159
300.0169
300.0713
300.0706
300.0724
300.1288
300.0056
300.1335
300.0058
300.0675
300.0041
300.0045
300.0728
300.0721
300.0043
300.0043
300.0698
300.0159
300.0168
300.0169
300.0158
300.0041
300.0726
300.0043
300.0688
300.0043
300.0696
300.0041
300.0157
300.0152
300.0161
300.0148
300.0039
300.0717
300.0039
300.0668
300.0041
300.0694
300.0038
300.0156
300.0147
300.0155
300.0148
300.0039
300.0684
300.0666
300.0037
300.0692
300.0039
300.0037
300.004
300.0043
300.0715
300.0688
300.0042
300.004
300.0684
300.0158
300.0167
300.0167
300.0157
300.004
300.0714
300.0042
300.0682
300.0042
300.0684
300.004
300.0155
300.0146
300.0155
300.0146
300.0038
300.0684
300.0037
300.0654
300.0039
300.068
300.0037
300.0155
300.0146
300.0154
300.0146
300.0038
300.0678
300.0653
300.0037
300.068
300.0038
300.0037
300.004
300.0042
300.0711
300.0682
300.0042
300.004
300.0681
300.0157
300.0167
300.0167
300.0157
300.004
300.0711
300.0042
300.0681
300.0042
300.0681
300.004
300.0154
300.0146
300.0154
300.0145
300.0038
300.0678
300.0036
300.065
300.0038
300.0677
300.0036
300.0154
300.0145
300.0154
300.0145
300.0038
300.0677
300.065
300.0036
300.0677
300.0038
300.0036
300.004
300.0042
300.0711
300.0681
300.0042
300.004
300.0681
300.0157
300.0167
300.0167
300.0157
300.004
300.0711
300.0042
300.0681
300.0042
300.0681
300.004
300.0154
300.0145
300.0154
300.0145
300.0038
300.0677
300.0036
300.065
300.0038
300.0677
300.0036
300.0154
300.0145
300.0154
300.0145
300.0038
300.0677
300.065
300.0036
300.0677
300.0038
300.0036
300.004
300.0042
300.0712
300.0681
300.0042
300.004
300.0682
300.0157
300.0167
300.0167
300.0157
300.004
300.0713
300.0042
300.0684
300.0042
300.0682
300.004
300.0154
300.0145
300.0154
300.0146
300.0038
300.0677
300.0036
300.0652
300.0038
300.0678
300.0037
300.0154
300.0146
300.0155
300.0146
300.0038
300.068
300.0652
300.0037
300.0678
300.0038
300.0037
300.0041
300.0042
300.0718
300.0684
300.0043
300.004
300.0688
300.0159
300.0171
300.0168
300.0161
300.0041
300.0718
300.0043
300.07
300.0043
300.0689
300.0041
300.0156
300.0146
300.0155
300.0147
300.0039
300.068
300.0037
300.0659
300.0039
300.0684
300.0037
300.0156
300.015
300.0159
300.0148
300.0039
300.0696
300.066
300.0038
300.0685
300.0039
300.0037
300.0044
300.0044
300.0762
300.0703
300.0047
300.0042
300.0734
300.0178
300.0878
300.0189
300.0847
300.0066
300.0772
300.0829
300.1418
300.0069
300.0744
300.08
300.0166
300.0151
300.016
300.0158
300.0043
300.0699
300.0038
300.0706
300.004
300.073
300.0041
300.0176
300.0814
300.0842
300.0167
300.0064
300.1422
300.0715
300.0769
300.074
300.0796
300.0061
300.0677
300.0156
300.0709
300.0148
300.0641
300.1282
300.0053
300.0668
300.067
300.1223
300.0051
300.0673
300.0137
300.0145
300.0644
300.0637
300.0665
300.1177
300.0046
300.1238
300.0048
300.061
300.0034
300.0038
300.0664
300.0661
300.0036
300.0036
300.064
300.0137
300.0144
300.0145
300.0136
300.0034
300.0662
300.0035
300.063
300.0035
300.0638
300.0034
300.0135
300.0131
300.0139
300.0128
300.0033
300.0658
300.0033
300.0615
300.0034
300.0637
300.0031
300.0135
300.0126
300.0134
300.0127
300.0032
300.0627
300.0613
300.0031
300.0635
300.0032
300.0031
300.0033
300.0035
300.065
300.0629
300.0035
300.0033
300.0626
300.0135
300.0143
300.0143
300.0135
300.0033
300.065
300.0035
300.0624
300.0035
300.0626
300.0033
300.0133
300.0126
300.0133
300.0126
300.0032
300.0626
300.0031
300.0601
300.0032
300.0623
300.003
300.0133
300.0126
300.0133
300.0126
300.0032
300.062
300.06
300.003
300.0622
300.0032
300.003
300.0033
300.0035
300.0647
300.0623
300.0035
300.0033
300.0622
300.0135
300.0143
300.0143
300.0135
300.0033
300.0647
300.0035
300.0622
300.0035
300.0622
300.0033
300.0133
300.0126
300.0133
300.0125
300.0032
300.062
300.003
300.0597
300.0032
300.0619
300.003
300.0133
300.0125
300.0133
300.0125
300.0032
300.0619
300.0597
300.003
300.0619
300.0032
300.003
300.0033
300.0035
300.0646
300.0622
300.0035
300.0033
300.0622
300.0135
300.0143
300.0143
300.0135
300.0033
300.0646
300.0035
300.0623
300.0035
300.0622
300.0033
300.0133
300.0125
300.0133
300.0125
300.0032
300.0619
300.003
300.0597
300.0032
300.0619
300.003
300.0133
300.0126
300.0133
300.0125
300.0032
300.0619
300.0597
300.003
300.0619
300.0032
300.003
300.0033
300.0035
300.0648
300.0623
300.0035
300.0033
300.0624
300.0135
300.0144
300.0143
300.0136
300.0033
300.0648
300.0035
300.0626
300.0035
300.0624
300.0033
300.0133
300.0126
300.0133
300.0126
300.0032
300.0619
300.003
300.0599
300.0032
300.0621
300.003
300.0133
300.0127
300.0134
300.0126
300.0032
300.0623
300.0599
300.0031
300.0621
300.0032
300.003
300.0034
300.0035
300.0655
300.0627
300.0035
300.0034
300.0632
300.0138
300.0148
300.0145
300.014
300.0034
300.0656
300.0036
300.0645
300.0036
300.0633
300.0035
300.0135
300.0127
300.0134
300.0128
300.0032
300.0624
300.0031
300.0607
300.0032
300.0629
300.0031
300.0136
300.0131
300.0138
300.0129
300.0033
300.0642
300.0608
300.0032
300.063
300.0033
300.0031
300.0037
300.0037
300.0702
300.0648
300.0039
300.0035
300.068
300.0156
300.081
300.0164
300.0782
300.0056
300.0712
300.0765
300.1335
300.0059
300.0689
300.074
300.0145
300.0132
300.0139
300.0138
300.0036
300.0645
300.0032
300.0655
300.0034
300.0676
300.0034
300.0153
300.0753
300.0779
300.0146
300.0054
300.1331
300.0665
300.0713
300.0686
300.0737
300.0052
300.0613
300.0135
300.064
300.0127
300.0581
300.1177
300.0044
300.0617
300.0606
300.1132
300.0042
300.0609
300.0118
300.0125
300.0583
300.0577
300.0614
300.1095
300.0038
300.1131
300.004
300.0553
300.0029
300.0031
300.0612
300.0611
300.003
300.003
300.0591
300.0118
300.0124
300.0125
300.0118
300.0028
300.061
300.0029
300.0581
300.003
300.0589
300.0028
300.0117
300.0114
300.012
300.0111
300.0027
300.0608
300.0027
300.0569
300.0028
300.0588
300.0026
300.0116
300.0109
300.0116
300.011
300.0027
300.0579
300.0567
300.0026
300.0587
300.0027
300.0026
300.0028
300.0029
300.0598
300.0581
300.0029
300.0028
300.0577
300.0117
300.0123
300.0124
300.0117
300.0028
300.0597
300.0029
300.0574
300.0029
300.0577
300.0028
300.0115
300.0109
300.0115
300.0109
300.0027
300.0578
300.0025
300.0555
300.0027
300.0574
300.0025
300.0115
300.0109
300.0115
300.0109
300.0026
300.0572
300.0555
300.0025
300.0574
300.0026
300.0025
300.0028
300.0029
300.0594
300.0574
300.0029
300.0028
300.0573
300.0117
300.0123
300.0123
300.0117
300.0028
300.0594
300.0029
300.0573
300.0029
300.0573
300.0028
300.0115
300.0109
300.0115
300.0108
300.0026
300.0571
300.0025
300.0551
300.0026
300.057
300.0025
300.0115
300.0108
300.0115
300.0108
300.0026
300.057
300.0551
300.0025
300.057
300.0026
300.0025
300.0028
300.0029
300.0594
300.0573
300.0029
300.0028
300.0573
300.0117
300.0123
300.0123
300.0117
300.0028
300.0594
300.0029
300.0574
300.0029
300.0573
300.0028
300.0115
300.0109
300.0115
300.0109
300.0026
300.057
300.0025
300.0551
300.0026
300.057
300.0025
300.0115
300.0109
300.0115
300.0109
300.0026
300.0571
300.0551
300.0025
300.057
300.0026
300.0025
300.0028
300.0029
300.0596
300.0574
300.0029
300.0028
300.0575
300.0117
300.0125
300.0124
300.0118
300.0028
300.0596
300.0029
300.0578
300.0029
300.0575
300.0028
300.0115
300.0109
300.0115
300.0109
300.0027
300.0571
300.0025
300.0553
300.0026
300.0572
300.0025
300.0116
300.011
300.0116
300.0109
300.0027
300.0576
300.0554
300.0026
300.0573
300.0027
300.0025
300.0028
300.0029
300.0604
300.0579
300.003
300.0028
300.0585
300.012
300.0129
300.0127
300.0123
300.0029
300.0606
300.003
300.0599
300.003
300.0586
300.0029
300.0118
300.011
300.0117
300.0112
300.0027
300.0576
300.0026
300.0563
300.0027
300.0582
300.0026
300.0118
300.0115
300.0121
300.0112
300.0027
300.0596
300.0565
300.0027
300.0583
300.0028
300.0026
300.0032
300.0031
300.0652
300.0602
300.0033
300.003
300.0633
300.0136
300.075
300.0143
300.0725
300.0048
300.0662
300.071
300.1257
300.005
300.0642
300.0687
300.0127
300.0116
300.0122
300.0121
300.003
300.0599
300.0027
300.0611
300.0029
300.063
300.0029
300.0134
300.0699
300.0722
300.0127
300.0046
300.1249
300.062
300.0663
300.0639
300.0684
300.0044
300.0554
300.0116
300.0579
300.011
300.0526
300.1084
300.0036
300.0571
300.0549
300.1046
300.0035
300.0551
300.0101
300.0108
300.0527
300.0523
300.0569
300.1008
300.0032
300.1043
300.0033
300.05
300.0024
300.0026
300.0566
300.0566
300.0025
300.0025
300.0548
300.0102
300.0107
300.0108
300.0101
300.0024
300.0565
300.0024
300.0539
300.0025
300.0546
300.0023
300.0101
300.0098
300.0104
300.0095
300.0023
300.0563
300.0023
300.0528
300.0024
300.0545
300.0022
300.01
300.0094
300.01
300.0095
300.0022
300.0536
300.0526
300.0021
300.0544
300.0022
300.0021
300.0023
300.0024
300.0552
300.0538
300.0024
300.0023
300.0534
300.0101
300.0107
300.0107
300.0101
300.0023
300.0552
300.0024
300.0532
300.0024
300.0534
300.0023
300.0099
300.0094
300.01
300.0094
300.0022
300.0535
300.0021
300.0514
300.0022
300.0532
300.0021
300.0099
300.0094
300.0099
300.0094
300.0022
300.0529
300.0514
300.0021
300.0531
300.0022
300.0021
300.0023
300.0024
300.0549
300.0531
300.0024
300.0023
300.053
300.0101
300.0107
300.0107
300.0101
300.0023
300.0548
300.0024
300.053
300.0024
300.053
300.0023
300.0099
300.0094
300.0099
300.0094
300.0022
300.0529
300.0021
300.0511
300.0022
300.0528
300.0021
300.0099
300.0094
300.0099
300.0094
300.0022
300.0527
300.051
300.0021
300.0528
300.0022
300.0021
300.0023
300.0024
300.0548
300.053
300.0024
300.0023
300.053
300.0101
300.0107
300.0107
300.0101
300.0023
300.0548
300.0024
300.0531
300.0024
300.053
300.0023
300.0099
300.0094
300.0099
300.0094
300.0022
300.0527
300.0021
300.051
300.0022
300.0528
300.0021
300.0099
300.0094
300.0099
300.0094
300.0022
300.0528
300.051
300.0021
300.0528
300.0022
300.0021
300.0023
300.0024
300.0551
300.0531
300.0024
300.0023
300.0533
300.0102
300.0108
300.0108
300.0103
300.0023
300.0551
300.0024
300.0536
300.0024
300.0533
300.0023
300.01
300.0094
300.01
300.0095
300.0022
300.0529
300.0021
300.0513
300.0022
300.053
300.0021
300.01
300.0096
300.0101
300.0095
300.0022
300.0534
300.0514
300.0021
300.0531
300.0022
300.0021
300.0024
300.0025
300.0561
300.0537
300.0025
300.0024
300.0543
300.0105
300.0113
300.0111
300.0107
300.0024
300.0562
300.0026
300.0557
300.0025
300.0544
300.0024
300.0103
300.0096
300.0101
300.0097
300.0023
300.0535
300.0022
300.0524
300.0023
300.0541
300.0022
300.0103
300.01
300.0105
300.0098
300.0023
300.0555
300.0525
300.0022
300.0542
300.0023
300.0022
300.0027
300.0026
300.0608
300.056
300.0028
300.0025
300.059
300.0119
300.0696
300.0125
300.0674
300.0041
300.0617
300.066
300.1157
300.0043
300.0599
300.064
300.0111
300.0101
300.0106
300.0106
300.0026
300.0558
300.0023
300.0571
300.0024
300.0588
300.0025
300.0117
300.0649
300.067
300.0111
300.0039
300.1151
300.0579
300.0617
300.0596
300.0637
300.0038
300.0501
300.01
300.0524
300.0094
300.0476
300.1001
300.003
300.053
300.0497
300.0964
300.0029
300.0498
300.0087
300.0092
300.0476
300.0473
300.0527
300.0931
300.0026
300.0964
300.0027
300.0453
300.002
300.0022
300.0525
300.0525
300.0021
300.0021
300.0508
300.0088
300.0092
300.0093
300.0087
300.002
300.0524
300.002
300.0499
300.002
300.0507
300.0019
300.0087
300.0084
300.0089
300.0081
300.0019
300.0522
300.0019
300.0489
300.002
300.0506
300.0018
300.0086
300.0081
300.0086
300.0081
300.0019
300.0497
300.0488
300.0018
300.0504
300.0018
300.0018
300.0019
300.002
300.0512
300.0499
300.002
300.0019
300.0495
300.0087
300.0092
300.0092
300.0087
300.0019
300.0511
300.002
300.0493
300.002
300.0495
300.0019
300.0085
300.008
300.0085
300.008
300.0018
300.0496
300.0018
300.0477
300.0018
300.0493
300.0017
300.0085
300.008
300.0085
300.008
300.0018
300.049
300.0477
300.0017
300.0493
300.0018
300.0017
300.0019
300.002
300.0508
300.0492
300.002
300.0019
300.0492
300.0087
300.0092
300.0092
300.0087
300.0019
300.0508
300.002
300.0491
300.002
300.0492
300.0019
300.0085
300.008
300.0085
300.008
300.0018
300.049
300.0017
300.0473
300.0018
300.0489
300.0017
300.0085
300.008
300.0085
300.008
300.0018
300.0489
300.0473
300.0017
300.0489
300.0018
300.0017
300.0019
300.002
300.0508
300.0491
300.002
300.0019
300.0491
300.0087
300.0092
300.0092
300.0087
300.0019
300.0508
300.002
300.0493
300.002
300.0492
300.0019
300.0085
300.008
300.0085
300.0081
300.0018
300.0489
300.0017
300.0473
300.0018
300.0489
300.0017
300.0085
300.0081
300.0086
300.0081
300.0018
300.049
300.0474
300.0017
300.0489
300.0018
300.0017
300.0019
300.002
300.0511
300.0493
300.002
300.0019
300.0495
300.0088
300.0094
300.0093
300.0089
300.0019
300.0511
300.002
300.0499
300.002
300.0495
300.002
300.0086
300.0081
300.0086
300.0081
300.0018
300.0491
300.0018
300.0477
300.0018
300.0492
300.0018
300.0086
300.0082
300.0087
300.0082
300.0019
300.0496
300.0477
300.0018
300.0493
300.0019
300.0018
300.002
300.0021
300.0522
300.0499
300.0021
300.002
300.0506
300.0091
300.0098
300.0096
300.0093
300.002
300.0523
300.0021
300.052
300.0021
300.0507
300.0021
300.0089
300.0083
300.0088
300.0084
300.0019
300.0497
300.0018
300.0488
300.0019
300.0503
300.0018
300.0089
300.0086
300.0091
300.0084
300.0019
300.0518
300.0489
300.0019
300.0505
300.002
300.0018
300.0023
300.0022
300.0568
300.0523
300.0024
300.0021
300.0552
300.0104
300.0646
300.011
300.0625
300.0035
300.0577
300.0614
300.1087
300.0036
300.056
300.0595
300.0097
300.0087
300.0092
300.0092
300.0022
300.052
300.0019
300.0534
300.002
300.055
300.0021
300.0102
300.0602
300.0622
300.0097
300.0033
300.1083
300.0542
300.0573
300.0558
300.0592
300.0032
300.0452
300.0085
300.0473
300.008
300.0431
300.0926
300.0025
300.0491
300.045
300.0894
300.0023
300.0449
300.0073
300.0078
300.0429
300.0428
300.0489
300.0854
300.0021
300.089
300.0022
300.0409
300.0016
300.0018
300.0487
300.0487
300.0017
300.0017
300.0471
300.0075
300.0079
300.008
300.0074
300.0016
300.0486
300.0017
300.0463
300.0017
300.047
300.0016
300.0074
300.0071
300.0075
300.0069
300.0016
300.0484
300.0015
300.0454
300.0016
300.0469
300.0015
300.0073
300.0068
300.0073
300.0069
300.0015
300.0461
300.0453
300.0014
300.0468
300.0015
300.0015
300.0016
300.0017
300.0475
300.0463
300.0017
300.0016
300.0459
300.0074
300.0079
300.0079
300.0074
300.0016
300.0474
300.0017
300.0457
300.0017
300.0459
300.0016
300.0073
300.0068
300.0073
300.0068
300.0015
300.046
300.0014
300.0442
300.0015
300.0457
300.0014
300.0073
300.0068
300.0073
300.0068
300.0015
300.0455
300.0442
300.0014
300.0457
300.0015
300.0014
300.0016
300.0017
300.0471
300.0457
300.0017
300.0016
300.0456
300.0074
300.0079
300.0079
300.0074
300.0016
300.0471
300.0017
300.0456
300.0017
300.0456
300.0016
300.0073
300.0068
300.0073
300.0068
300.0015
300.0455
300.0014
300.0439
300.0015
300.0454
300.0014
300.0073
300.0068
300.0073
300.0068
300.0015
300.0454
300.0439
300.0014
300.0454
300.0015
300.0014
300.0016
300.0017
300.0471
300.0456
300.0017
300.0016
300.0456
300.0074
300.0079
300.0079
300.0075
300.0016
300.0471
300.0017
300.0457
300.0017
300.0456
300.0016
300.0073
300.0068
300.0073
300.0069
300.0015
300.0454
300.0014
300.0439
300.0015
300.0454
300.0014
300.0073
300.0069
300.0073
300.0069
300.0015
300.0455
300.044
300.0014
300.0454
300.0015
300.0014
300.0016
300.0017
300.0475
300.0458
300.0017
300.0016
300.046
300.0076
300.0081
300.008
300.0076
300.0016
300.0475
300.0017
300.0464
300.0017
300.046
300.0016
300.0074
300.0069
300.0073
300.007
300.0015
300.0455
300.0015
300.0443
300.0015
300.0458
300.0015
300.0074
300.007
300.0075
300.007
300.0015
300.0462
300.0444
300.0015
300.0458
300.0015
300.0015
300.0017
300.0017
300.0486
300.0465
300.0017
300.0016
300.0471
300.0078
300.0085
300.0083
300.008
300.0017
300.0487
300.0018
300.0485
300.0018
300.0472
300.0017
300.0076
300.0071
300.0075
300.0072
300.0016
300.0462
300.0015
300.0454
300.0016
300.0469
300.0015
300.0077
300.0074
300.0079
300.0072
300.0016
300.0483
300.0456
300.0016
300.047
300.0016
300.0015
300.0019
300.0018
300.0532
300.0488
300.002
300.0018
300.0516
300.009
300.0599
300.0095
300.058
300.0029
300.0539
300.0571