/*--------------------------------*- C++ -*----------------------------------*\
| =========                 |                                                 |
| \\      /  F ield         | OpenFOAM: The Open Source CFD Toolbox           |
|  \\    /   O peration     | Version:  2506                                  |
|   \\  /    A nd           | Website:  www.openfoam.com                      |
|    \\/     M anipulation  |                                                 |
\*---------------------------------------------------------------------------*/
FoamFile
{
    version     2.0;
    format      ascii;
    arch        "LSB;label=32;scalar=64";
    class       volScalarField;
    location    "4000/solid";
    object      T;
}
// * * * * * * * * * * * * * * * * * * * * * * * * * * * * * * * * * * * * * //

dimensions      [0 0 0 1 0 0 0];

internalField   nonuniform List<scalar> 
2304
(
305.334
305.3793
305.3975
305.4011
305.3946
305.3683
305.3843
305.4305
305.4488
305.4523
305.4459
305.4194
305.4032
305.4494
305.468
305.4715
305.4651
305.4383
305.4069
305.453
305.4716
305.4752
305.4687
305.4418
305.4004
305.4467
305.4652
305.4687
305.4622
305.4355
305.3746
305.4205
305.4387
305.4422
305.4358
305.4094
305.3899
305.432
305.4366
305.4882
305.4411
305.4564
305.4974
305.5126
305.4591
305.4626
305.5152
305.5186
305.4626
305.4589
305.5186
305.515
305.4562
305.44
305.5123
305.4964
305.4303
305.3827
305.4866
305.4292
305.4461
305.4979
305.4621
305.5137
305.5071
305.5223
305.5229
305.5382
305.5249
305.5283
305.5409
305.5443
305.5283
305.5248
305.5443
305.5407
305.5221
305.5061
305.538
305.5219
305.4962
305.4388
305.512
305.4548
305.4648
305.5163
305.4684
305.5198
305.5255
305.5409
305.529
305.5444
305.5435
305.547
305.5471
305.5505
305.547
305.5434
305.5505
305.547
305.5407
305.5246
305.5442
305.5281
305.5147
305.4575
305.5182
305.4612
305.4684
305.5198
305.4648
305.5163
305.529
305.5444
305.5255
305.5409
305.5471
305.5505
305.5435
305.547
305.5505
305.547
305.547
305.5434
305.5442
305.5281
305.5407
305.5246
305.5182
305.4612
305.5147
305.4575
305.4621
305.5136
305.4461
305.4978
305.5229
305.5382
305.507
305.5223
305.5408
305.5443
305.5249
305.5283
305.5443
305.5407
305.5283
305.5247
305.538
305.5219
305.522
305.506
305.512
305.4548
305.4962
305.4388
305.4365
305.4882
305.3899
305.4321
305.4973
305.5125
305.4411
305.4565
305.5151
305.5186
305.4592
305.4627
305.5185
305.515
305.4627
305.459
305.5123
305.4963
305.4562
305.4401
305.4865
305.4292
305.4303
305.3827
305.3701
305.3746
305.4112
305.3948
305.4206
305.4361
305.4011
305.4388
305.4422
305.3974
305.4422
305.4386
305.3782
305.4358
305.4195
305.3265
305.4095
305.3668
305.4211
305.4005
305.4372
305.4461
305.4467
305.4625
305.4523
305.4652
305.4687
305.4487
305.4687
305.4651
305.4295
305.4623
305.4457
305.3766
305.4355
305.3928
305.4399
305.4069
305.4435
305.4653
305.453
305.4689
305.4715
305.4716
305.4752
305.4679
305.4752
305.4715
305.4485
305.4687
305.4521
305.3956
305.4418
305.3992
305.4435
305.4032
305.4399
305.4689
305.4494
305.4652
305.4752
305.468
305.4715
305.4715
305.4715
305.4678
305.4521
305.465
305.4485
305.3992
305.4382
305.3955
305.4372
305.3843
305.4211
305.4625
305.4305
305.4461
305.4687
305.4488
305.4523
305.4651
305.4523
305.4486
305.4457
305.4458
305.4295
305.3928
305.4193
305.3766
305.4112
305.3341
305.3702
305.436
305.3794
305.3949
305.4422
305.3976
305.4012
305.4386
305.4012
305.3975
305.4195
305.3947
305.3783
305.3668
305.3684
305.3265
305.4645
305.4236
305.441
305.4426
305.5112
305.4794
305.4862
305.5045
305.5243
305.4976
305.4994
305.5225
305.5254
305.5011
305.5005
305.5259
305.5158
305.4946
305.4908
305.5196
305.4797
305.4684
305.4549
305.4935
305.5139
305.4834
305.5068
305.4905
305.5619
305.5481
305.5549
305.5551
305.5748
305.566
305.5677
305.573
305.5758
305.5694
305.5688
305.5764
305.5665
305.5631
305.5594
305.5702
305.53
305.5371
305.5229
305.5442
305.5273
305.5022
305.5255
305.5041
305.5752
305.5666
305.5733
305.5684
305.588
305.5844
305.5862
305.5863
305.5891
305.5878
305.5873
305.5897
305.5797
305.5816
305.5779
305.5835
305.5434
305.5557
305.5416
305.5575
305.5285
305.5058
305.5291
305.5053
305.5763
305.5701
305.5768
305.5695
305.5892
305.5879
305.5897
305.5874
305.5902
305.5913
305.5908
305.5908
305.5808
305.5851
305.5814
305.5846
305.5445
305.5592
305.5451
305.5586
305.519
305.4995
305.5228
305.4957
305.567
305.5639
305.5707
305.5602
305.5799
305.5818
305.5836
305.5781
305.5809
305.5852
305.5846
305.5815
305.5716
305.579
305.5753
305.5753
305.5351
305.553
305.5389
305.5493
305.4834
305.4736
305.4971
305.4603
305.5309
305.5382
305.545
305.5242
305.5439
305.5561
305.5579
305.5421
305.545
305.5595
305.5589
305.5455
305.5355
305.5532
305.5495
305.5392
305.4992
305.5272
305.5131
305.5132
305.3431
305.3453
305.3546
305.3861
305.3908
305.3975
305.3994
305.4089
305.4107
305.4005
305.4124
305.4118
305.3907
305.4059
305.4021
305.3549
305.3798
305.3664
305.3936
305.3914
305.4007
305.4374
305.4377
305.4446
305.4506
305.456
305.4579
305.4517
305.4595
305.459
305.4421
305.4531
305.4493
305.4057
305.4265
305.4128
305.4124
305.4051
305.4143
305.4564
305.4513
305.4582
305.4698
305.4699
305.4717
305.471
305.4734
305.4729
305.4612
305.4669
305.4631
305.4245
305.4401
305.4264
305.416
305.4063
305.4154
305.46
305.4525
305.4594
305.4735
305.471
305.4729
305.4746
305.4746
305.474
305.4648
305.4681
305.4642
305.4281
305.4413
305.4275
305.4096
305.3966
305.4059
305.4536
305.4429
305.4498
305.467
305.4613
305.4632
305.4681
305.4648
305.4643
305.4584
305.4584
305.4545
305.4217
305.4317
305.418
305.3839
305.3615
305.3708
305.4273
305.4072
305.4139
305.4405
305.4253
305.4271
305.4416
305.4287
305.4282
305.432
305.4224
305.4185
305.3958
305.3961
305.3826
305.4823
305.4701
305.4575
305.4952
305.4835
305.4737
305.4603
305.4971
305.5018
305.5289
305.5149
305.5157
305.4628
305.4211
305.4048
305.407
305.4374
305.4394
305.4276
305.48
305.4651
305.4199
305.4564
305.4529
305.4925
305.4442
305.4813
305.4693
305.4236
305.4587
305.4563
305.4946
305.4456
305.499
305.5252
305.4749
305.4758
305.5116
305.5125
305.4626
305.5162
305.4949
305.4912
305.5198
305.531
305.5382
305.5242
305.545
305.5359
305.5535
305.5395
305.5499
305.5082
305.4742
305.4478
305.4654
305.4809
305.5015
305.4721
305.5131
305.4896
305.4528
305.4806
305.4859
305.5167
305.477
305.5274
305.5343
305.484
305.5041
305.5208
305.541
305.4907
305.5323
305.5495
305.4992
305.509
305.5359
305.5459
305.4956
305.5254
305.5011
305.5006
305.526
305.5439
305.5561
305.5422
305.5579
305.5451
305.5595
305.5456
305.559
305.5211
305.4922
305.4609
305.4832
305.494
305.5193
305.4851
305.5223
305.4957
305.4621
305.4867
305.4952
305.5228
305.4862
305.5403
305.5521
305.5018
305.517
305.5385
305.5538
305.5036
305.5414
305.5555
305.5052
305.5181
305.5419
305.5549
305.5047
305.5242
305.4974
305.4993
305.5223
305.545
305.5595
305.5456
305.559
305.5438
305.556
305.542
305.5578
305.5222
305.4957
305.462
305.4867
305.4951
305.5228
305.4861
305.521
305.492
305.4608
305.4831
305.4939
305.5192
305.485
305.5413
305.5555
305.5052
305.518
305.5419
305.5549
305.5046
305.5402
305.5519
305.5016
305.5169
305.5383
305.5537
305.5035
305.5106
305.4783
305.4855
305.5034
305.5355
305.5533
305.5393
305.5495
305.5303
305.5372
305.5232
305.5444
305.5127
305.4893
305.4524
305.4804
305.4855
305.5165
305.4766
305.5076
305.4731
305.4471
305.4644
305.4803
305.5005
305.4714
305.5319
305.5493
305.4989
305.5086
305.5357
305.5455
305.4952
305.5268
305.5333
305.483
305.5034
305.5197
305.5404
305.49
305.4604
305.4177
305.4369
305.4367
305.4992
305.5272
305.5133
305.5131
305.4795
305.4679
305.4544
305.4932
305.4773
305.4634
305.417
305.4547
305.4501
305.4908
305.4413
305.4585
305.4145
305.4001
305.3996
305.433
305.4327
305.4229
305.4964
305.5235
305.4732
305.473
305.51
305.5098
305.4598
305.4771
305.4626
305.4162
305.4541
305.4496
305.4904
305.441
305.5325
305.5387
305.5255
305.5458
305.519
305.4995
305.4957
305.5228
305.5376
305.5546
305.5509
305.5413
305.5111
305.4789
305.4682
305.4531
305.5041
305.4859
305.4752
305.529
305.5348
305.4854
305.5049
305.5221
305.5418
305.4923
305.5162
305.4948
305.4583
305.484
305.4911
305.5199
305.4803
305.5341
305.5506
305.51
305.5011
305.5469
305.5378
305.4974
305.5669
305.5634
305.5598
305.5704
305.567
305.564
305.5603
305.5707
305.572
305.5792
305.5755
305.5756
305.5577
305.544
305.5138
305.5141
305.5507
305.551
305.5208
305.5626
305.5592
305.5187
305.5294
305.5556
305.5662
305.5257
305.5628
305.5598
305.5192
305.5296
305.5561
305.5665
305.5259
305.5677
305.575
305.5345
305.5346
305.5713
305.5714
305.5309
305.5759
305.5694
305.5688
305.5764
305.5799
305.5818
305.5781
305.5836
305.581
305.5852
305.5815
305.5847
305.5706
305.5618
305.5267
305.532
305.5635
305.5688
305.5338
305.5717
305.5652
305.5278
305.5354
305.5647
305.5722
305.5349
305.5757
305.5776
305.5371
305.5427
305.5739
305.5794
305.5389
305.5768
305.581
305.5406
305.5438
305.5773
305.5805
305.54
305.5747
305.5658
305.5676
305.5729
305.5809
305.5852
305.5815
305.5846
305.5798
305.5817
305.578
305.5835
305.5716
305.5652
305.5278
305.5354
305.5646
305.5722
305.5348
305.5705
305.5616
305.5266
305.5318
305.5635
305.5687
305.5337
305.5767
305.581
305.5405
305.5437
305.5773
305.5804
305.54
305.5756
305.5775
305.537
305.5426
305.5738
305.5793
305.5388
305.5613
305.5471
305.5542
305.5542
305.5716
305.579
305.5753
305.5753
305.5664
305.563
305.5593
305.5701
305.5623
305.559
305.5183
305.5291
305.5553
305.566
305.5254
305.5571
305.5431
305.5132
305.5131
305.5501
305.5501
305.5202
305.5674
305.5748
305.5343
305.5343
305.5711
305.5711
305.5305
305.5622
305.5588
305.5182
305.5291
305.5551
305.5659
305.5253
305.51
305.4776
305.5029
305.4847
305.5351
305.553
305.5493
305.5389
305.5152
305.4938
305.49
305.519
305.5264
305.5332
305.4826
305.5032
305.5195
305.5402
305.4896
305.5069
305.4723
305.4637
305.4459
305.4999
305.4793
305.4706
305.5315
305.549
305.5083
305.4984
305.5453
305.5352
305.4947
305.512
305.4883
305.451
305.4795
305.4845
305.5158
305.4758
305.5458
305.5572
305.544
305.559
305.5285
305.5058
305.5053
305.5291
305.547
305.5607
305.5602
305.5475
305.5244
305.4975
305.4867
305.4667
305.5226
305.4994
305.4885
305.5422
305.5532
305.5038
305.5181
305.5404
305.555
305.5056
305.5255
305.5011
305.4678
305.4902
305.5006
305.5261
305.4897
305.5434
305.5567
305.5193
305.5073
305.5561
305.5439
305.5067
305.5801
305.5819
305.5783
305.5837
305.5763
305.5701
305.5695
305.5768
305.5812
305.5854
305.5848
305.5818
305.5709
305.5624
305.5323
305.5274
305.5691
305.5642
305.5341
305.5758
305.5776
305.5373
305.5427
305.574
305.5794
305.5391
305.5721
305.5659
305.5285
305.5358
305.5653
305.5726
305.5353
305.577
305.5811
305.5439
305.5408
305.5806
305.5775
305.5402
305.5891
305.5879
305.5873
305.5897
305.5892
305.5879
305.5874
305.5897
305.5903
305.5914
305.5908
305.5908
305.5838
305.5802
305.5453
305.5454
305.582
305.582
305.5472
305.5849
305.5836
305.5465
305.5488
305.5831
305.5854
305.5483
305.5849
305.5837
305.5465
305.5489
305.5832
305.5855
305.5483
305.5861
305.5871
305.55
305.55
305.5866
305.5866
305.5495
305.5879
305.5843
305.5861
305.5861
305.5902
305.5913
305.5908
305.5908
305.5891
305.5878
305.5872
305.5896
305.5849
305.5836
305.5464
305.5488
305.5831
305.5854
305.5483
305.5837
305.5801
305.5453
305.5453
305.5819
305.5819
305.5471
305.586
305.5871
305.55
305.55
305.5866
305.5866
305.5494
305.5849
305.5836
305.5464
305.5488
305.583
305.5854
305.5483
305.5746
305.5656
305.5728
305.5675
305.5809
305.5851
305.5846
305.5814
305.5757
305.5691
305.5686
305.5762
305.5755
305.5774
305.5369
305.5426
305.5737
305.5792
305.5388
305.5704
305.5615
305.5317
305.5264
305.5686
305.5633
305.5336
305.5766
305.5809
305.5437
305.5405
305.5804
305.5772
305.5399
305.5715
305.565
305.5275
305.5353
305.5644
305.572
305.5347
305.5235
305.4965
305.5217
305.4984
305.5445
305.5592
305.5586
305.5451
305.5247
305.5002
305.4996
305.5252
305.5397
305.5516
305.5011
305.5165
305.5379
305.5534
305.5029
305.5203
305.491
305.4822
305.4594
305.5184
305.4929
305.484
305.5408
305.5551
305.5177
305.5046
305.5546
305.5414
305.5041
305.5214
305.4946
305.4606
305.4857
305.494
305.522
305.4852
305.547
305.5607
305.5475
305.5602
305.5273
305.5022
305.5041
305.5255
305.5458
305.5572
305.559
305.544
305.5255
305.5011
305.4902
305.4678
305.5261
305.5006
305.4897
305.5434
305.5567
305.5073
305.5193
305.5439
305.5561
305.5067
305.5244
305.4975
305.4667
305.4867
305.4994
305.5226
305.4885
305.5422
305.5532
305.5181
305.5038
305.555
305.5404
305.5056
305.5812
305.5854
305.5818
305.5848
305.5751
305.5666
305.5684
305.5733
305.5801
305.5819
305.5837
305.5783
305.572
305.5659
305.5358
305.5285
305.5726
305.5653
305.5352
305.577
305.5811
305.5408
305.5439
305.5775
305.5806
305.5402
305.5709
305.5624
305.5273
305.5323
305.5642
305.5691
305.5341
305.5758
305.5776
305.5427
305.5373
305.5794
305.574
305.5391
305.5903
305.5914
305.5908
305.5908
305.588
305.5844
305.5862
305.5862
305.5891
305.5878
305.5897
305.5873
305.5849
305.5837
305.5489
305.5465
305.5855
305.5832
305.5483
305.586
305.5871
305.55
305.55
305.5866
305.5866
305.5495
305.5838
305.5802
305.5454
305.5453
305.582
305.582
305.5472
305.5849
305.5836
305.5488
305.5465
305.5854
305.5831
305.5483
305.5891
305.5878
305.5896
305.5872
305.5891
305.5878
305.5896
305.5873
305.5879
305.5843
305.5861
305.5861
305.586
305.5871
305.55
305.55
305.5866
305.5866
305.5494
305.5849
305.5836
305.5488
305.5464
305.5854
305.583
305.5483
305.5849
305.5836
305.5488
305.5464
305.5854
305.583
305.5483
305.5837
305.5801
305.5452
305.5453
305.5819
305.5819
305.5471
305.5757
305.5691
305.5762
305.5686
305.5797
305.5816
305.5834
305.5779
305.5746
305.5656
305.5674
305.5727
305.5766
305.5809
305.5405
305.5437
305.5772
305.5804
305.5399
305.5715
305.5649
305.5352
305.5275
305.572
305.5644
305.5347
305.5755
305.5774
305.5425
305.5369
305.5792
305.5737
305.5388
305.5704
305.5615
305.5264
305.5317
305.5633
305.5685
305.5336
305.5247
305.5001
305.5252
305.4996
305.5434
305.5557
305.5575
305.5415
305.5235
305.4965
305.4984
305.5216
305.5408
305.5551
305.5046
305.5177
305.5414
305.5546
305.504
305.5214
305.4946
305.4857
305.4606
305.522
305.494
305.4852
305.5397
305.5516
305.5165
305.5011
305.5534
305.5379
305.5029
305.5203
305.491
305.4594
305.4822
305.4928
305.5184
305.484
305.5376
305.5545
305.5413
305.5508
305.5139
305.4834
305.4905
305.5068
305.5325
305.5387
305.5457
305.5254
305.5162
305.4948
305.484
305.4583
305.5199
305.491
305.4802
305.5341
305.5505
305.5011
305.5099
305.5378
305.5468
305.4974
305.5111
305.4788
305.4531
305.4682
305.4859
305.5041
305.4751
305.529
305.5348
305.5048
305.4853
305.5418
305.522
305.4923
305.5719
305.5792
305.5756
305.5755
305.5619
305.5481
305.5551
305.5548
305.5668
305.5634
305.5704
305.5598
305.5628
305.5598
305.5296
305.5191
305.5665
305.5561
305.5259
305.5677
305.575
305.5346
305.5345
305.5714
305.5713
305.5309
305.5577
305.544
305.514
305.5137
305.551
305.5507
305.5208
305.5626
305.5592
305.5293
305.5187
305.5662
305.5556
305.5257
305.581
305.5852
305.5847
305.5815
305.5748
305.5659
305.573
305.5677
305.5759
305.5693
305.5764
305.5688
305.5756
305.5776
305.5426
305.5371
305.5793
305.5739
305.5389
305.5767
305.581
305.5438
305.5405
305.5804
305.5773
305.54
305.5705
305.5617
305.5319
305.5267
305.5688
305.5635
305.5337
305.5716
305.5651
305.5354
305.5278
305.5722
305.5646
305.5348
305.5798
305.5816
305.5835
305.5779
305.5758
305.5693
305.5764
305.5688
305.5747
305.5658
305.5728
305.5676
305.5767
305.581
305.5437
305.5405
305.5804
305.5772
305.54
305.5755
305.5774
305.5426
305.537
305.5793
305.5737
305.5388
305.5716
305.5651
305.5354
305.5277
305.5721
305.5646
305.5348
305.5704
305.5616
305.5318
305.5266
305.5686
305.5634
305.5336
305.5664
305.563
305.5701
305.5593
305.5664
305.5631
305.5702
305.5594
305.5613
305.5471
305.5541
305.5542
305.5673
305.5748
305.5342
305.5343
305.571
305.5711
305.5305
305.5622
305.5588
305.529
305.5182
305.5659
305.5551
305.5253
305.5622
305.5589
305.5291
305.5183
305.566
305.5552
305.5254
305.5571
305.543
305.513
305.5131
305.55
305.5501
305.5202
305.5152
305.4937
305.5189
305.4899
305.53
305.5371
305.5441
305.5229
305.51
305.4776
305.4847
305.5029
305.5315
305.549
305.4984
305.5083
305.5352
305.5453
305.4947
305.512
305.4882
305.4795
305.451
305.5157
305.4844
305.4757
305.5264
305.5332
305.5032
305.4826
305.5402
305.5194
305.4896
305.5069
305.4722
305.4458
305.4636
305.4793
305.4999
305.4706
305.5018
305.5288
305.5156
305.5149
305.4645
305.4236
305.4426
305.441
305.4823
305.4701
305.4952
305.4575
305.4813
305.4693
305.4587
305.4236
305.4945
305.4563
305.4456
305.499
305.5251
305.4758
305.4749
305.5124
305.5116
305.4626
305.4628
305.4212
305.407
305.4048
305.4395
305.4374
305.4276
305.48
305.4651
305.4564
305.42
305.4924
305.4529
305.4442
305.5359
305.5535
305.5499
305.5395
305.5112
305.4794
305.5044
305.4862
305.5162
305.4949
305.5198
305.4912
305.5274
305.5343
305.504
305.484
305.541
305.5207
305.4906
305.5323
305.5495
305.5089
305.4991
305.5459
305.5359
305.4956
305.5082
305.4742
305.4654
305.4479
305.5015
305.4809
305.4721
305.5131
305.4896
305.4806
305.4528
305.5167
305.4859
305.477
305.545
305.5595
305.559
305.5456
305.5243
305.4976
305.5224
305.4994
305.5254
305.5011
305.5259
305.5006
305.5402
305.552
305.5169
305.5017
305.5538
305.5385
305.5035
305.5414
305.5554
305.518
305.5052
305.5549
305.5419
305.5047
305.5211
305.4922
305.4833
305.461
305.5193
305.494
305.4851
305.5222
305.4957
305.4867
305.4621
305.5228
305.4952
305.4862
305.5438
305.5559
305.5578
305.5419
305.5253
305.5011
305.5259
305.5005
305.5241
305.4974
305.5223
305.4993
305.5413
305.5554
305.518
305.5052
305.5549
305.5419
305.5046
305.5401
305.5519
305.5168
305.5016
305.5537
305.5383
305.5034
305.5222
305.4957
305.4867
305.4621
305.5228
305.4951
305.4861
305.521
305.492
305.4831
305.4609
305.5191
305.4939
305.485
305.5303
305.5372
305.5443
305.5232
305.5157
305.4946
305.5195
305.4908
305.5105
305.4783
305.5034
305.4855
305.5319
305.5492
305.5086
305.4989
305.5455
305.5356
305.4952
305.5268
305.5333
305.5034
305.4829
305.5404
305.5197
305.49
305.5127
305.4893
305.4804
305.4524
305.5164
305.4855
305.4766
305.5075
305.4731
305.4644
305.4472
305.5005
305.4803
305.4714
305.4795
305.4678
305.4931
305.4544
305.4797
305.4684
305.4935
305.4548
305.4604
305.4176
305.4367
305.4369
305.4963
305.5235
305.473
305.4732
305.5098
305.51
305.4597
305.477
305.4626
305.4541
305.4162
305.4903
305.4495
305.441
305.4773
305.4634
305.4547
305.4171
305.4908
305.4501
305.4413
305.4584
305.4145
305.3996
305.4001
305.4327
305.433
305.4229
305.3578
305.3815
305.3693
305.3615
305.3839
305.3708
305.3979
305.3988
305.3856
305.3911
305.4062
305.4025
305.4072
305.4274
305.4139
305.4226
305.4324
305.419
305.4006
305.4124
305.4118
305.4253
305.4406
305.4271
305.4288
305.4417
305.4282
305.3993
305.4087
305.4106
305.4288
305.4417
305.4282
305.4251
305.4405
305.427
305.3854
305.3897
305.3969
305.4224
305.432
305.4186
305.4061
305.4268
305.4133
305.3382
305.3375
305.3497
305.3962
305.3959
305.3826
305.3537
305.379
305.3659
305.4086
305.4282
305.4157
305.3967
305.4097
305.4059
305.4334
305.4246
305.4209
305.4424
305.4533
305.4496
305.4429
305.4536
305.4498
305.4586
305.4587
305.4549
305.4518
305.4596
305.459
305.4614
305.467
305.4632
305.4649
305.4682
305.4643
305.4505
305.4559
305.4578
305.4649
305.4682
305.4643
305.4612
305.467
305.4631
305.4368
305.4367
305.444
305.4584
305.4584
305.4546
305.4419
305.453
305.4492
305.3888
305.3837
305.3958
305.4317
305.4218
305.418
305.389
305.4048
305.401
305.4273
305.4418
305.4292
305.4063
305.416
305.4154
305.4429
305.4309
305.4304
305.4615
305.4671
305.4634
305.4525
305.46
305.4594
305.4683
305.4651
305.4646
305.471
305.4734
305.4729
305.4711
305.4735
305.4729
305.4746
305.4746
305.4741
305.4698
305.4698
305.4717
305.4746
305.4746
305.474
305.4709
305.4734
305.4728
305.4558
305.4503
305.4577
305.4681
305.4648
305.4642
305.4515
305.4594
305.4589
305.4076
305.3974
305.4094
305.4413
305.4281
305.4275
305.3986
305.4112
305.4106
305.4309
305.4429
305.4304
305.4051
305.4124
305.4142
305.4418
305.4273
305.4292
305.4651
305.4683
305.4646
305.4513
305.4564
305.4582
305.4671
305.4615
305.4634
305.4746
305.4746
305.4741
305.4699
305.4698
305.4717
305.4734
305.471
305.4729
305.4734
305.4709
305.4728
305.4734
305.4709
305.4728
305.4697
305.4698
305.4717
305.4594
305.4515
305.4588
305.4669
305.4612
305.463
305.4503
305.4558
305.4577
305.4112
305.3986
305.4106
305.4401
305.4245
305.4264
305.3974
305.4076
305.4094
305.4246
305.4334
305.4208
305.3914
305.3936
305.4007
305.4282
305.4086
305.4156
305.4587
305.4586
305.4549
305.4376
305.4373
305.4445
305.4533
305.4424
305.4496
305.4682
305.4649
305.4643
305.456
305.4506
305.4578
305.4595
305.4517
305.459
305.467
305.4612
305.4631
305.4595
305.4517
305.4589
305.4559
305.4505
305.4578
305.453
305.4419
305.4492
305.4531
305.442
305.4492
305.4366
305.4367
305.4439
305.4048
305.3889
305.401
305.4265
305.4057
305.4128
305.3837
305.3887
305.3958
305.3988
305.3979
305.3856
305.3453
305.3432
305.3547
305.3816
305.3579
305.3693
305.4324
305.4226
305.4189
305.3908
305.3862
305.3975
305.4062
305.3912
305.4025
305.4417
305.4288
305.4282
305.4089
305.3995
305.4107
305.4124
305.4006
305.4119
305.4405
305.4251
305.427
305.4124
305.4006
305.4118
305.4087
305.3994
305.4106
305.4267
305.4061
305.4133
305.4059
305.3908
305.4021
305.3897
305.3855
305.3969
305.379
305.3537
305.3658
305.3798
305.355
305.3664
305.3375
305.3383
305.3497
)
;

boundaryField
{
    solid_to_air
    {
        type            compressible::turbulentTemperatureRadCoupledMixed;
        refValue        nonuniform List<scalar> 
1536
(
300.5604
300.5556
300.5578
300.5584
300.5576
300.556
300.5543
300.5519
300.5215
300.5154
300.5261
300.5663
300.5567
300.5218
300.4958
300.4915
300.4989
300.538
300.5573
300.5157
300.4914
300.4874
300.4943
300.5316
300.5565
300.5264
300.4989
300.4943
300.5024
300.5431
300.5549
300.5666
300.5384
300.5319
300.5434
300.578
300.794
300.7935
300.3364
300.3426
300.3604
300.3512
300.375
300.3533
300.3777
300.3494
300.3718
300.3396
300.3507
300.7919
300.3428
300.3603
300.5085
300.5307
300.5346
300.5264
300.4943
300.3423
300.3515
300.375
300.5308
300.5558
300.5603
300.5511
300.5153
300.3511
300.3536
300.3777
300.5348
300.5603
300.5649
300.5556
300.519
300.3532
300.3498
300.3718
300.5265
300.5512
300.5556
300.5465
300.5113
300.3494
300.3401
300.3508
300.4945
300.5154
300.5191
300.5113
300.4811
300.3396
300.7941
300.3426
300.3512
300.3532
300.3494
300.3396
301.0213
300.3919
300.3942
300.4012
300.4028
300.4049
300.4049
300.4027
300.4011
300.3941
300.3917
301.0176
301.0199
300.392
300.5562
300.5549
300.5781
300.5576
300.5667
300.5434
300.5584
300.5385
300.5318
300.5578
300.532
300.5383
300.5555
300.5434
300.5664
300.5614
300.5779
300.5576
301.0192
300.3919
300.3943
300.4013
300.5669
300.5565
300.5438
300.5262
300.5265
300.5025
300.5154
300.499
300.4943
300.5214
300.4943
300.4989
300.5515
300.5024
300.5257
300.557
300.5431
300.5591
300.3943
300.4013
300.4029
300.4051
300.5389
300.5573
300.5323
300.499
300.5157
300.4943
300.4914
300.4914
300.4874
300.4958
300.4874
300.4914
300.5211
300.4943
300.5151
300.5593
300.5316
300.5599
300.4029
300.4051
300.4051
300.4029
300.5325
300.5567
300.5388
300.4943
300.5217
300.4989
300.4874
300.4958
300.4914
300.4915
300.4914
300.4957
300.5152
300.4989
300.5211
300.5599
300.5381
300.5593
300.4051
300.4029
300.4013
300.3943
300.5439
300.5543
300.5667
300.5025
300.5519
300.526
300.4943
300.5214
300.5153
300.4989
300.5154
300.5213
300.5259
300.5261
300.5513
300.5591
300.5663
300.557
300.4013
300.3942
300.392
301.02
300.5781
300.5604
300.5561
301.0213
300.3919
300.5434
300.5555
300.5576
300.3942
300.4011
300.5319
300.5577
300.5583
300.4027
300.4049
300.5384
300.5583
300.5577
300.4048
300.4027
300.5664
300.5576
300.5554
300.401
300.394
300.5576
300.556
300.5613
300.3919
300.3916
301.0193
301.0176
300.3399
300.3509
300.3401
300.3508
300.4815
300.3496
300.3718
300.4945
300.5115
300.3533
300.3777
300.5154
300.5191
300.3511
300.3749
300.5191
300.5153
300.3424
300.3602
300.5114
300.4943
300.7912
300.3359
300.4812
300.3396
300.3509
300.4946
300.3498
300.3718
300.5116
300.5265
300.5266
300.5467
300.5347
300.5512
300.5556
300.5306
300.5556
300.5511
300.5082
300.5466
300.5263
300.3604
300.5113
300.3494
300.3719
300.5156
300.3536
300.3777
300.5193
300.5512
300.5348
300.5557
300.5603
300.5603
300.5649
300.5558
300.5649
300.5603
300.5306
300.5556
300.5345
300.3751
300.519
300.3532
300.3779
300.5193
300.3515
300.3749
300.5155
300.5557
300.5308
300.5512
300.5649
300.5558
300.5603
300.5603
300.5603
300.5557
300.5345
300.5511
300.5305
300.3779
300.5152
300.351
300.3751
300.5116
300.3428
300.3603
300.4945
300.5467
300.5084
300.5264
300.5556
300.5307
300.5346
300.5511
300.5346
300.5306
300.5263
300.5263
300.5082
300.3719
300.4942
300.3423
300.3604
300.4814
300.7935
300.3364
300.3399
300.3509
300.5115
300.3603
300.3495
300.3718
300.5191
300.3749
300.3532
300.3777
300.5153
300.3777
300.3511
300.3749
300.4942
300.3717
300.3424
300.3602
300.3509
300.3507
300.792
300.7913
300.3359
300.579
300.5748
300.5737
300.971
300.9699
300.5526
300.5518
300.5733
300.5565
300.5751
300.478
300.4802
300.5656
300.5582
300.567
300.4855
300.4865
300.5647
300.5583
300.5642
300.4874
300.4871
300.571
300.5569
300.5692
300.4841
300.4823
300.5765
300.5597
300.5773
300.4765
300.4849
300.9702
300.5526
300.5731
300.5749
300.5553
300.4776
300.4798
300.5293
300.5407
300.5409
300.5077
300.5182
300.5106
300.5059
300.5163
300.5051
300.5206
300.5319
300.5148
300.569
300.5752
300.5569
300.4786
300.4809
300.5656
300.5669
300.5571
300.4851
300.4861
300.5078
300.5108
300.5185
300.4911
300.4934
300.4934
300.4899
300.4921
300.4893
300.5009
300.5036
300.4964
300.5515
300.5544
300.5346
300.4862
300.4872
300.5646
300.5642
300.5572
300.487
300.4867
300.5061
300.5053
300.5166
300.4899
300.4892
300.4921
300.4887
300.4881
300.4881
300.4994
300.4987
300.495
300.5496
300.5488
300.5325
300.4881
300.4878
300.5708
300.569
300.5557
300.4837
300.482
300.5209
300.5151
300.5323
300.501
300.4964
300.5037
300.4995
300.495
300.4987
300.5127
300.5074
300.5074
300.5631
300.5586
300.5488
300.4848
300.483
300.5759
300.5767
300.5587
300.4763
300.4848
300.5691
300.5572
300.5752
300.5518
300.535
300.5546
300.55
300.5328
300.5492
300.5633
300.5491
300.5589
300.5818
300.5821
300.582
300.4771
300.4856
300.971
300.5526
300.478
300.4801
300.4854
300.4864
300.4873
300.487
300.484
300.4823
300.4764
300.4849
300.496
300.3605
300.3934
300.3604
300.3934
300.5051
300.365
300.3453
300.4995
300.5175
300.3764
300.3523
300.5159
300.5184
300.3773
300.3529
300.5188
300.5094
300.3691
300.3475
300.5125
300.4798
300.3473
300.3439
300.4887
300.5054
300.4998
300.365
300.3455
300.5244
300.5162
300.5162
300.5419
300.5329
300.5396
300.5431
300.5341
300.5437
300.5305
300.522
300.5351
300.4876
300.4811
300.5016
300.5179
300.5163
300.3764
300.3526
300.542
300.5396
300.533
300.5609
300.5583
300.5584
300.5622
300.5596
300.5629
300.5485
300.5461
300.5536
300.502
300.5002
300.5173
300.5188
300.5192
300.3774
300.3533
300.5432
300.5438
300.5342
300.5623
300.5629
300.5597
300.5636
300.5642
300.5642
300.5498
300.5504
300.5549
300.5031
300.5036
300.5185
300.5099
300.513
300.3692
300.3479
300.5306
300.5352
300.5222
300.5485
300.5536
300.5461
300.5498
300.5549
300.5504
300.5368
300.5416
300.5416
300.4929
300.4964
300.5072
300.4804
300.4893
300.3474
300.3445
300.4879
300.5018
300.4813
300.5021
300.5174
300.5003
300.5032
300.5185
300.5037
300.4929
300.5072
300.4965
300.4585
300.4689
300.4689
300.4766
300.4853
301.0915
300.4811
300.5298
300.4272
300.4
300.4376
300.4841
300.4824
300.4291
300.3968
300.4315
300.4359
300.3993
300.434
300.4874
300.4871
300.4374
300.4039
300.4385
300.4395
300.4046
300.4392
300.4855
300.4865
300.4395
300.4046
300.4392
300.4374
300.4038
300.4385
300.4779
300.4802
300.4358
300.3992
300.4339
300.429
300.3967
300.4314
300.9688
300.5517
300.427
300.3995
300.4371
301.088
300.4797
300.5284
300.4763
300.4849
301.0898
300.4805
300.5289
300.4271
300.3999
300.4373
300.5763
300.5599
300.5771
300.576
300.5587
300.5768
300.5815
300.5819
300.5819
300.571
300.5569
300.5691
300.5692
300.5753
300.5574
300.5633
300.5588
300.5492
300.5647
300.5583
300.5642
300.552
300.5547
300.5351
300.55
300.5491
300.5328
300.5657
300.5582
300.567
300.5502
300.5492
300.533
300.552
300.5547
300.535
300.5734
300.5564
300.5753
300.5634
300.5589
300.5492
300.5691
300.5752
300.557
300.5795
300.5746
300.5759
300.5819
300.582
300.5821
300.5769
300.5612
300.5778
300.4771
300.4856
301.09
300.4805
300.5295
300.4275
300.3998
300.4377
300.4838
300.482
300.429
300.3969
300.4315
300.4358
300.3994
300.4339
300.5695
300.5754
300.5576
300.5708
300.5557
300.569
300.5637
300.5495
300.5592
300.5208
300.5321
300.515
300.5209
300.5323
300.5152
300.5129
300.5075
300.5076
300.5059
300.5162
300.5051
300.501
300.5037
300.4964
300.4995
300.4987
300.495
300.5076
300.5182
300.5106
300.4995
300.4987
300.495
300.501
300.5037
300.4964
300.529
300.5404
300.5404
300.5127
300.5074
300.5074
300.5205
300.5317
300.5147
300.5738
300.5757
300.558
300.5631
300.5488
300.5587
300.5714
300.5584
300.5695
300.4848
300.4831
300.4295
300.3969
300.4319
300.4363
300.3993
300.4344
300.487
300.4867
300.4374
300.404
300.4384
300.4395
300.4047
300.4391
300.5525
300.5552
300.5356
300.5646
300.5572
300.5642
300.5505
300.5333
300.5496
300.5011
300.5038
300.4964
300.5061
300.5166
300.5053
300.4995
300.495
300.4988
300.4899
300.4921
300.4892
300.4899
300.4921
300.4892
300.4887
300.488
300.488
300.4911
300.4934
300.4934
300.4887
300.4881
300.4881
300.4899
300.4921
300.4892
300.5075
300.5104
300.518
300.4994
300.495
300.4987
300.5058
300.516
300.5049
300.5659
300.5673
300.5597
300.5497
300.5325
300.5489
300.5649
300.5597
300.5645
300.4881
300.4878
300.4378
300.404
300.4389
300.44
300.4047
300.4396
300.4851
300.4861
300.4395
300.4047
300.4391
300.4374
300.404
300.4384
300.5506
300.5497
300.5335
300.5656
300.5571
300.5669
300.5524
300.5354
300.5551
300.4996
300.4988
300.495
300.5078
300.5185
300.5108
300.501
300.4964
300.5037
300.4887
300.488
300.488
300.4911
300.4933