/*--------------------------------*- C++ -*----------------------------------*\
  =========                 |
  \\      /  F ield         | OpenFOAM: The Open Source CFD Toolbox
   \\    /   O peration     | Website:  https://openfoam.org
    \\  /    A nd           | Version:  7
     \\/     M anipulation  |
\*---------------------------------------------------------------------------*/
FoamFile
{
    version     2.0;
    format      ascii;
    class       surfaceScalarField;
    location    "2";
    object      phi;
}
// * * * * * * * * * * * * * * * * * * * * * * * * * * * * * * * * * * * * * //

dimensions      [0 3 -1 0 0 0 0];

internalField   nonuniform List<scalar> 
4274
(
1.01056e-08
-2.87476e-11
-4.43623e-09
-4.43702e-09
-1.20364e-09
1.01177e-08
-1.20629e-11
1.01242e-08
-6.48892e-12
1.01253e-08
-1.12836e-12
1.0124e-08
1.28968e-12
1.01226e-08
1.47833e-12
1.01207e-08
1.83633e-12
1.01183e-08
2.45281e-12
1.01149e-08
3.38705e-12
1.01099e-08
4.97362e-12
1.01025e-08
7.39227e-12
1.00917e-08
1.08253e-11
1.00763e-08
1.5419e-11
1.00548e-08
2.14827e-11
1.00253e-08
2.94675e-11
9.98607e-09
3.92486e-11
9.93549e-09
5.05797e-11
9.87193e-09
6.35654e-11
9.79372e-09
7.82063e-11
9.69941e-09
9.43093e-11
9.5879e-09
1.11514e-10
9.45855e-09
1.29346e-10
9.31128e-09
1.47272e-10
9.14651e-09
1.64768e-10
8.96514e-09
1.81369e-10
8.76841e-09
1.9673e-10
8.55777e-09
2.10639e-10
8.33478e-09
2.22996e-10
8.10099e-09
2.33786e-10
7.85794e-09
2.43048e-10
7.6071e-09
2.50844e-10
7.34986e-09
2.57241e-10
7.08756e-09
2.62293e-10
6.82153e-09
2.6603e-10
6.55308e-09
2.68451e-10
6.28356e-09
2.69523e-10
6.01437e-09
2.69184e-10
5.74701e-09
2.67363e-10
5.48301e-09
2.64003e-10
5.22398e-09
2.59033e-10
4.9716e-09
2.52375e-10
4.72757e-09
2.44028e-10
4.4934e-09
2.34172e-10
4.27038e-09
2.23017e-10
4.05966e-09
2.10721e-10
3.86213e-09
1.97528e-10
3.67839e-09
1.83747e-10
3.5087e-09
1.69689e-10
3.35306e-09
1.55641e-10
3.2112e-09
1.41856e-10
3.08265e-09
1.28547e-10
2.96678e-09
1.15877e-10
2.86281e-09
1.03963e-10
2.76994e-09
9.2879e-11
2.68727e-09
8.2665e-11
2.61394e-09
7.333e-11
2.54908e-09
6.48604e-11
2.49185e-09
5.72252e-11
2.44147e-09
5.03811e-11
2.3972e-09
4.42764e-11
2.35834e-09
3.88546e-11
2.32429e-09
3.40571e-11
2.29446e-09
2.98253e-11
2.26836e-09
2.6102e-11
2.24553e-09
2.28329e-11
2.22556e-09
1.99672e-11
2.2081e-09
1.74581e-11
2.19284e-09
1.52627e-11
2.17949e-09
1.33427e-11
2.16783e-09
1.16635e-11
2.15764e-09
1.01945e-11
2.14873e-09
8.9087e-12
2.14095e-09
7.78244e-12
2.13415e-09
6.79496e-12
2.12822e-09
5.92821e-12
2.12306e-09
5.16646e-12
2.11856e-09
4.49611e-12
2.11465e-09
3.90534e-12
2.11127e-09
3.38395e-12
2.10835e-09
2.92308e-12
2.10583e-09
2.5151e-12
2.10368e-09
2.15342e-12
2.10185e-09
1.83235e-12
2.1003e-09
1.54696e-12
2.09901e-09
1.29301e-12
2.09794e-09
1.06686e-12
2.09707e-09
8.65411e-13
2.09639e-09
6.86032e-13
2.09586e-09
5.26507e-13
2.09548e-09
3.85028e-13
2.09522e-09
2.59849e-13
2.09506e-09
1.5268e-13
2.095e-09
6.05297e-14
2.09502e-09
-1.97336e-14
2.09511e-09
-8.25455e-14
2.09523e-09
-1.25061e-13
2.09539e-09
-1.58217e-13
2.09555e-09
-1.56771e-13
2.09573e-09
-1.81491e-13
-1.47526e-13
1.18003e-08
-5.99754e-11
-3.23573e-09
-4.44181e-09
-4.09151e-09
1.18091e-08
-2.08668e-11
1.181e-08
-7.45774e-12
1.1806e-08
2.9584e-12
1.17997e-08
7.53561e-12
1.17927e-08
8.45441e-12
1.17846e-08
9.99345e-12
1.17748e-08
1.22672e-11
1.17628e-08
1.54044e-11
1.17474e-08
2.02937e-11
1.17274e-08
2.73954e-11
1.17011e-08
3.71559e-11
1.16667e-08
4.9802e-11
1.16226e-08
6.55926e-11
1.15668e-08
8.52231e-11
1.14978e-08
1.08276e-10
1.14147e-08
1.33722e-10
1.13169e-08
1.61306e-10
1.12044e-08
1.90768e-10
1.1077e-08
2.21678e-10
1.0935e-08
2.53559e-10
1.07783e-08
2.85981e-10
1.06071e-08
3.18513e-10
1.04212e-08
3.50682e-10
1.02206e-08
3.81961e-10
1.00055e-08
4.11824e-10
9.77633e-09
4.39797e-10
9.53382e-09
4.65501e-10
9.27894e-09
4.88674e-10
9.01282e-09
5.09162e-10
8.73677e-09
5.26898e-10
8.45215e-09
5.41864e-10
8.16038e-09
5.54055e-10
7.86296e-09
5.6345e-10
7.56143e-09
5.69984e-10
7.25741e-09
5.73545e-10
6.95262e-09
5.73976e-10
6.64887e-09
5.71107e-10
6.34806e-09
5.64811e-10
6.05216e-09
5.54934e-10
5.76323e-09
5.41305e-10
5.48334e-09
5.23925e-10
5.21431e-09
5.032e-10
4.95774e-09
4.79589e-10
4.71502e-09
4.53433e-10
4.48728e-09
4.25268e-10
4.27525e-09
3.95779e-10
4.0793e-09
3.65638e-10
3.89947e-09
3.35475e-10
3.73548e-09
3.05847e-10
3.58681e-09
2.77216e-10
3.45275e-09
2.49941e-10
3.33243e-09
2.24279e-10
3.22491e-09
2.00395e-10
3.1292e-09
1.78378e-10
3.04428e-09
1.5825e-10
2.96916e-09
1.39984e-10
2.90287e-09
1.23513e-10
2.8445e-09
1.08747e-10
2.79321e-09
9.55746e-11
2.74819e-09
8.38742e-11
2.70872e-09
7.352e-11
2.67416e-09
6.43858e-11
2.64392e-09
5.63488e-11
2.61746e-09
4.92918e-11
2.59432e-09
4.31053e-11
2.57409e-09
3.76882e-11
2.5564e-09
3.29485e-11
2.54094e-09
2.8803e-11
2.52743e-09
2.51774e-11
2.51562e-09
2.20056e-11
2.5053e-09
1.92293e-11
2.49628e-09
1.67975e-11
2.48841e-09
1.46653e-11
2.48155e-09
1.27937e-11
2.47556e-09
1.11489e-11
2.47036e-09
9.70138e-12
2.46584e-09
8.42574e-12
2.46192e-09
7.29988e-12
2.45854e-09
6.30473e-12
2.45563e-09
5.42379e-12
2.45314e-09
4.64282e-12
2.45103e-09
3.94954e-12
2.44924e-09
3.33331e-12
2.44775e-09
2.78498e-12
2.44652e-09
2.29668e-12
2.44552e-09
1.86171e-12
2.44473e-09
1.4744e-12
2.44413e-09
1.12998e-12
2.44369e-09
8.24586e-13
2.44339e-09
5.54783e-13
2.44322e-09
3.22407e-13
2.44316e-09
1.22799e-13
2.44319e-09
-4.86203e-14
2.44329e-09
-1.83779e-13
2.44344e-09
-2.77275e-13
2.44363e-09
-3.45408e-13
2.44382e-09
-3.49445e-13
2.44403e-09
-3.85574e-13
-3.42422e-13
1.37783e-08
-1.26026e-10
-3.53115e-10
-4.45005e-09
-4.45315e-09
-4.45596e-09
1.37684e-08
-1.09854e-11
1.37537e-08
7.23655e-12
1.37307e-08
2.60049e-11
1.37033e-08
3.49406e-11
1.36729e-08
3.88769e-11
1.36383e-08
4.46e-11
1.35984e-08
5.21298e-11
1.3552e-08
6.18464e-11
1.34971e-08
7.51418e-11
1.34317e-08
9.27973e-11
1.33539e-08
1.14965e-10
1.32631e-08
1.40654e-10
1.31591e-08
1.69564e-10
1.30425e-08
2.01846e-10
1.29139e-08
2.3686e-10
1.27742e-08
2.73367e-10
1.26247e-08
3.10854e-10
1.24662e-08
3.49262e-10
1.22994e-08
3.88452e-10
1.21247e-08
4.28286e-10
1.19419e-08
4.68722e-10
1.17508e-08
5.09695e-10
1.15504e-08
5.51022e-10
1.134e-08
5.92362e-10
1.11186e-08
6.33239e-10
1.08853e-08
6.73078e-10
1.06396e-08
7.11267e-10
1.0381e-08
7.47217e-10
1.01098e-08
7.80402e-10
9.82629e-09
8.10388e-10
9.53133e-09
8.36816e-10
9.22601e-09
8.59381e-10
8.91167e-09
8.77792e-10
8.58991e-09
8.91745e-10
8.26255e-09
9.00902e-10
7.93163e-09
9.04896e-10
7.59937e-09
9.03372e-10
7.26809e-09
8.96081e-10
6.94029e-09
8.82743e-10
6.61854e-09
8.63054e-10
6.30546e-09
8.37005e-10
6.00337e-09
8.05291e-10
5.71428e-09
7.68671e-10
5.44003e-09
7.27682e-10
5.18208e-09
6.83227e-10
4.94141e-09
6.3644e-10
4.71862e-09
5.88435e-10
4.51384e-09
5.40253e-10
4.32687e-09
4.92818e-10
4.15719e-09
4.46899e-10
4.00404e-09
4.03092e-10
3.86648e-09
3.61829e-10
3.74349e-09
3.23391e-10
3.63394e-09
2.87931e-10
3.53669e-09
2.55493e-10
3.45064e-09
2.26041e-10
3.37468e-09
1.99473e-10
3.30778e-09
1.75647e-10
3.24897e-09
1.54385e-10
3.19735e-09
1.35495e-10
3.15209e-09
1.18775e-10
3.11245e-09
1.04022e-10
3.07776e-09
9.10399e-11
3.04742e-09
7.96391e-11
3.02088e-09
6.96434e-11
2.99768e-09
6.08902e-11
2.97739e-09
5.32309e-11
2.95967e-09
4.65315e-11
2.94417e-09
4.06718e-11
2.93063e-09
3.55455e-11
2.9188e-09
3.10582e-11
2.90847e-09
2.71275e-11
2.89946e-09
2.3681e-11
2.89159e-09
2.06558e-11
2.88475e-09
1.7997e-11
2.87879e-09
1.56572e-11
2.87362e-09
1.35952e-11
2.86915e-09
1.17753e-11
2.86528e-09
1.01667e-11
2.86196e-09
8.74267e-12
2.85913e-09
7.48029e-12
2.85672e-09
6.35966e-12
2.85469e-09
5.3636e-12
2.85299e-09
4.47731e-12
2.8516e-09
3.68807e-12
2.85048e-09
2.98505e-12
2.84959e-09
2.3591e-12
2.84892e-09
1.8025e-12
2.84844e-09
1.30908e-12
2.84812e-09
8.73638e-13
2.84794e-09
4.96947e-13
2.84789e-09
1.73464e-13
2.84795e-09
-1.0088e-13
2.84808e-09
-3.18389e-13
2.84827e-09
-4.71118e-13
2.84851e-09
-5.77068e-13
2.84875e-09
-5.89717e-13
2.84899e-09
-6.31634e-13
-5.8483e-13
1.59703e-08
-4.34782e-12
-4.45422e-09
-4.4532e-09
-4.44772e-09
-2.73685e-09
1.5897e-08
6.23258e-11
1.58148e-08
8.94623e-11
1.57174e-08
1.23381e-10
1.56129e-08
1.39404e-10
1.55001e-08
1.51677e-10
1.53772e-08
1.67509e-10
1.52431e-08
1.86271e-10
1.5097e-08
2.07971e-10
1.49404e-08
2.3172e-10
1.47762e-08
2.56949e-10
1.46068e-08
2.84436e-10
1.44339e-08
3.13563e-10
1.4259e-08
3.44462e-10
1.40832e-08
3.77574e-10
1.3907e-08
4.13051e-10
1.37301e-08
4.50284e-10
1.3552e-08
4.88953e-10
1.33721e-08
5.2923e-10
1.31895e-08
5.70995e-10
1.30037e-08
6.1406e-10
1.28141e-08
6.58376e-10
1.26198e-08
7.03932e-10
1.24202e-08
7.50651e-10
1.22142e-08
7.98364e-10
1.20007e-08
8.46786e-10
1.17782e-08
8.95502e-10
1.15455e-08
9.43965e-10
1.13013e-08
9.91509e-10
1.10443e-08
1.03739e-09
1.07738e-08
1.08081e-09
1.04897e-08
1.12099e-09
1.01919e-08
1.15711e-09
9.88136e-09
1.18838e-09
9.5591e-09
1.214e-09
9.22683e-09
1.23317e-09
8.88665e-09
1.24508e-09
8.54103e-09
1.249e-09
8.19267e-09
1.24444e-09
7.84454e-09
1.23087e-09
7.49987e-09
1.20773e-09
7.16193e-09
1.17495e-09
6.83365e-09
1.13357e-09
6.51764e-09
1.08468e-09
6.21631e-09
1.02901e-09
5.93165e-09
9.6789e-10
5.66508e-09
9.03002e-10
5.41752e-09
8.35996e-10
5.18936e-09
7.68411e-10
4.98056e-09
7.01619e-10
4.7907e-09
6.36764e-10
4.61905e-09
5.74744e-10
4.46466e-09
5.16213e-10
4.32645e-09
4.61604e-10
4.20322e-09
4.1116e-10
4.09374e-09
3.64968e-10
3.99679e-09
3.22991e-10
3.91117e-09
2.85099e-10
3.83572e-09
2.51095e-10
3.76937e-09
2.20736e-10
3.71111e-09
1.93752e-10
3.66003e-09
1.69859e-10
3.61528e-09
1.48771e-10
3.57611e-09
1.30209e-10
3.54185e-09
1.13905e-10
3.51188e-09
9.96073e-11
3.48569e-09
8.7085e-11
3.46279e-09
7.61261e-11
3.44278e-09
6.65396e-11
3.4253e-09
5.8154e-11
3.41003e-09
5.08172e-11
3.39669e-09
4.43947e-11
3.38505e-09
3.87685e-11
3.3749e-09
3.38352e-11
3.36605e-09
2.95047e-11
3.35835e-09
2.56987e-11
3.35165e-09
2.23493e-11
3.34585e-09
1.93975e-11
3.34084e-09
1.67923e-11
3.33651e-09
1.44896e-11
3.3328e-09
1.24512e-11
3.32964e-09
1.06442e-11
3.32696e-09
9.04011e-12
3.32471e-09
7.61441e-12
3.32284e-09
6.34586e-12
3.32131e-09
5.21627e-12
3.32009e-09
4.21015e-12
3.31913e-09
3.31438e-12
3.31842e-09
2.51796e-12
3.31791e-09
1.81211e-12
3.3176e-09
1.18969e-12
3.31744e-09
6.49626e-13
3.31743e-09
1.86351e-13
3.31753e-09
-2.03417e-13
3.31773e-09
-5.13026e-13
3.31799e-09
-7.32202e-13
3.31829e-09
-8.77541e-13
3.3186e-09
-9.01566e-13
3.31891e-09
-9.38905e-13
-8.96117e-13
1.73162e-08
3.8957e-10
-1.67325e-09
-4.33861e-09
-4.27284e-09
-4.15397e-09
-3.27146e-09
1.70497e-08
3.28831e-10
1.67935e-08
3.45665e-10
1.65287e-08
3.88143e-10
1.62662e-08
4.01959e-10
1.60069e-08
4.1097e-10
1.57563e-08
4.18141e-10
1.55195e-08
4.23044e-10
1.52996e-08
4.27899e-10
1.50971e-08
4.34159e-10
1.49113e-08
4.42738e-10
1.47402e-08
4.55526e-10
1.45812e-08
4.72644e-10
1.44307e-08
4.9496e-10
1.42857e-08
5.22536e-10
1.41433e-08
5.55438e-10
1.4001e-08
5.92638e-10
1.38567e-08
6.33171e-10
1.37091e-08
6.7686e-10
1.3557e-08
7.23069e-10
1.33999e-08
7.71193e-10
1.32374e-08
8.20909e-10
1.30693e-08
8.72047e-10
1.28954e-08
9.24487e-10
1.27156e-08
9.78163e-10
1.25294e-08
1.03303e-09
1.23359e-08
1.08901e-09
1.21339e-08
1.14592e-09
1.1922e-08
1.20339e-09
1.16986e-08
1.26083e-09
1.1462e-08
1.31744e-09
1.12108e-08
1.37217e-09
1.09441e-08
1.42381e-09
1.06615e-08
1.47099e-09
1.03632e-08
1.51225e-09
1.00503e-08
1.54607e-09
9.72444e-09
1.57097e-09
9.38787e-09
1.58557e-09
9.04338e-09
1.58893e-09
8.69421e-09
1.58003e-09
8.34409e-09
1.55785e-09
7.99694e-09
1.5221e-09
7.65628e-09
1.47423e-09
7.32536e-09
1.41561e-09
7.00733e-09
1.34704e-09
6.70486e-09
1.27036e-09
6.41995e-09
1.1879e-09
6.15402e-09
1.10193e-09
5.90786e-09
1.01457e-09
5.68175e-09
9.27732e-10
5.47549e-09
8.43026e-10
5.28851e-09
7.61725e-10
5.11995e-09
6.84769e-10
4.96876e-09
6.12798e-10
4.83373e-09
5.46185e-10
4.71361e-09
4.85087e-10
4.60711e-09
4.29489e-10
4.51297e-09
3.79246e-10
4.42995e-09
3.34116e-10
4.35689e-09
2.93792e-10
4.29272e-09
2.57926e-10
4.23642e-09
2.26152e-10
4.1871e-09
1.98095e-10
4.14392e-09
1.73387e-10
4.10615e-09
1.51678e-10
4.07312e-09
1.32635e-10
4.04425e-09
1.15953e-10
4.01903e-09
1.0135e-10
3.99699e-09
8.85741e-11
3.97775e-09
7.7397e-11
3.96095e-09
6.76166e-11
3.94629e-09
5.90542e-11
3.93351e-09
5.15528e-11
3.92237e-09
4.4975e-11
3.91267e-09
3.92006e-11
3.90424e-09
3.41256e-11
3.89694e-09
2.96592e-11
3.89061e-09
2.5723e-11
3.88515e-09
2.22491e-11
3.88046e-09
1.91785e-11
3.87645e-09
1.64605e-11
3.87305e-09
1.40511e-11
3.87018e-09
1.19124e-11
3.86778e-09
1.00116e-11
3.8658e-09
8.32044e-12
3.86421e-09
6.81468e-12
3.86294e-09
5.47364e-12
3.86198e-09
4.27982e-12
3.86128e-09
3.21862e-12
3.86081e-09
2.27834e-12
3.86055e-09
1.44973e-12
3.86047e-09
7.29539e-13
3.86054e-09
1.12532e-13
3.86074e-09
-4.03743e-13
3.86104e-09
-8.13271e-13
3.86142e-09
-1.1039e-12
3.86183e-09
-1.28801e-12
3.86225e-09
-1.32305e-12
3.86265e-09
-1.34186e-12
-1.30706e-12
1.19553e-08
-9.26115e-10
-6.2617e-10
-3.30873e-09
-2.92092e-09
-2.37093e-09
-1.41291e-09
1.2461e-08
-1.76798e-10
1.26266e-08
1.79995e-10
1.27578e-08
2.56992e-10
1.28772e-08
2.82546e-10
1.29806e-08
3.07576e-10
1.30722e-08
3.26571e-10
1.3154e-08
3.41181e-10
1.32263e-08
3.55607e-10
1.3289e-08
3.7152e-10
1.33416e-08
3.90135e-10
1.33826e-08
4.14452e-10
1.34118e-08
4.43496e-10
1.34281e-08
4.78677e-10
1.34309e-08
5.19734e-10
1.34195e-08
5.66858e-10
1.33934e-08
6.18711e-10
1.33526e-08
6.73922e-10
1.32972e-08
7.32292e-10
1.32276e-08
7.92665e-10
1.31447e-08
8.54125e-10
1.30494e-08
9.16191e-10
1.29428e-08
9.78603e-10
1.28261e-08
1.04123e-09
1.27001e-08
1.10412e-09
1.25657e-08
1.16748e-09
1.24231e-08
1.23164e-09
1.2272e-08
1.29694e-09
1.21119e-08
1.36357e-09
1.19412e-08
1.43146e-09
1.17585e-08
1.5002e-09
1.15617e-08
1.56891e-09
1.13492e-08
1.6363e-09
1.11196e-08
1.70067e-09
1.08718e-08
1.75998e-09
1.06059e-08
1.81197e-09
1.03226e-08
1.85429e-09
1.00234e-08
1.88473e-09
9.71069e-09
1.90166e-09
9.38741e-09
1.90331e-09
9.05745e-09
1.88781e-09
8.72513e-09
1.85442e-09
8.39426e-09
1.8051e-09
8.06856e-09
1.74131e-09
7.75201e-09
1.66358e-09
7.44798e-09
1.5744e-09
7.15912e-09
1.47676e-09
6.88747e-09
1.37359e-09
6.63436e-09
1.26767e-09
6.40056e-09
1.16153e-09
6.18626e-09
1.05733e-09
5.99119e-09
9.56795e-10
5.81473e-09
8.61234e-10
5.65597e-09
7.71555e-10
5.51384e-09
6.88318e-10
5.38713e-09
6.11794e-10
5.27459e-09
5.42024e-10
5.17497e-09
4.78872e-10
5.08702e-09
4.22068e-10
5.00955e-09
3.71257e-10
4.94146e-09
3.2602e-10
4.8817e-09
2.8591e-10
4.82933e-09
2.50468e-10
4.78347e-09
2.1924e-10
4.74336e-09
1.91787e-10
4.7083e-09
1.67697e-10
4.67767e-09
1.46585e-10
4.65092e-09
1.281e-10
4.62757e-09
1.11923e-10
4.6072e-09
9.77678e-11
4.58944e-09
8.53796e-11
4.57396e-09
7.45329e-11
4.56048e-09
6.50292e-11
4.54876e-09
5.6695e-11
4.53859e-09
4.93785e-11
4.52976e-09
4.29477e-11
4.52213e-09
3.72882e-11
4.51556e-09
3.23006e-11
4.50991e-09
2.78989e-11
4.50508e-09
2.40084e-11
4.50097e-09
2.05647e-11
4.49751e-09
1.75122e-11
4.49462e-09
1.48029e-11
4.49224e-09
1.23953e-11
4.4903e-09
1.02535e-11
4.48877e-09
8.34673e-12
4.4876e-09
6.64882e-12
4.48674e-09
5.13763e-12
4.48616e-09
3.79468e-12
4.48584e-09
2.60515e-12
4.48573e-09
1.55763e-12
4.48581e-09
6.46562e-13
4.48606e-09
-1.32887e-13
4.48643e-09
-7.82072e-13
4.48692e-09
-1.29481e-12
4.48747e-09
-1.65738e-12
4.48806e-09
-1.87559e-12
4.48865e-09
-1.91517e-12
4.48921e-09
-1.89731e-12
-1.86346e-12
3.09821e-09
-4.02433e-09
4.26397e-09
-1.34255e-09
5.30084e-09
-8.56871e-10
6.29284e-09
-7.35016e-10
7.15594e-09
-5.8055e-10
7.89738e-09
-4.33862e-10
8.54182e-09
-3.17871e-10
9.10683e-09
-2.23832e-10
9.60445e-09
-1.4201e-10
1.00433e-08
-6.73692e-11
1.04305e-08
2.92723e-12
1.0768e-08
7.697e-11
1.10607e-08
1.50863e-10
1.13113e-08
2.28046e-10
1.15227e-08
3.08279e-10
1.16977e-08
3.91891e-10
1.18383e-08
4.78091e-10
1.1947e-08
5.65256e-10
1.20261e-08
6.53214e-10
1.20781e-08
7.40612e-10
1.21058e-08
8.26446e-10
1.21117e-08
9.10344e-10
1.20982e-08
9.92107e-10
1.20677e-08
1.07168e-09
1.20225e-08
1.14928e-09
1.19646e-08
1.22536e-09
1.18956e-08
1.30067e-09
1.18165e-08
1.37607e-09
1.17277e-08
1.45241e-09
1.16288e-08
1.53034e-09
1.15189e-08
1.61012e-09
1.13963e-08
1.69143e-09
1.12593e-08
1.77332e-09
1.11059e-08
1.85414e-09
1.09342e-08
1.93162e-09
1.07432e-08
2.00298e-09
1.05324e-08
2.06508e-09
1.03023e-08
2.11483e-09
1.00541e-08
2.14991e-09
9.78985e-09
2.16754e-09
9.51304e-09
2.16462e-09
9.2279e-09
2.13955e-09
8.9378e-09
2.09521e-09
8.64658e-09
2.03252e-09
8.35893e-09
1.95124e-09
8.07865e-09
1.85468e-09
7.80895e-09
1.74646e-09
7.55245e-09
1.63009e-09
7.31114e-09
1.50898e-09
7.08635e-09
1.38632e-09
6.87883e-09
1.26486e-09
6.68876e-09
1.14686e-09
6.51592e-09
1.03407e-09
6.35974e-09
9.27737e-10
6.21939e-09
8.28665e-10
6.09389e-09
7.37295e-10
5.98214e-09
6.5377e-10
5.88302e-09
5.78e-10
5.79536e-09
5.09721e-10
5.71807e-09
4.4855e-10
5.65007e-09
3.94019e-10
5.59036e-09
3.45616e-10
5.53803e-09
3.02805e-10
5.49221e-09
2.65055e-10
5.45215e-09
2.31847e-10
5.41716e-09
2.0269e-10
5.38662e-09
1.77126e-10
5.35998e-09
1.54735e-10
5.33677e-09
1.35134e-10
5.31656e-09
1.17979e-10
5.29898e-09
1.02962e-10
5.2837e-09
8.98113e-11
5.27044e-09
7.82879e-11
5.25895e-09
6.81817e-11
5.24902e-09
5.93093e-11
5.24046e-09
5.15109e-11
5.2331e-09
4.46479e-11
5.2268e-09
3.86e-11
5.22144e-09
3.32627e-11
5.2169e-09
2.85458e-11
5.21309e-09
2.4371e-11
5.20993e-09
2.0671e-11
5.20735e-09
1.73875e-11
5.20528e-09
1.44702e-11
5.20365e-09
1.18754e-11
5.20243e-09
9.56591e-12
5.20157e-09
7.50996e-12
5.20103e-09
5.68074e-12
5.20077e-09
4.05585e-12
5.20076e-09
2.61734e-12
5.20096e-09
1.35161e-12
5.20136e-09
2.51108e-13
5.20191e-09
-6.88634e-13
5.2026e-09
-1.46753e-12
5.20338e-09
-2.07817e-12
5.20423e-09
-2.50495e-12
5.2051e-09
-2.7453e-12
5.20596e-09
-2.77328e-12
5.20675e-09
-2.69356e-12
-2.63458e-12
-3.14434e-10
-3.7099e-09
-2.46484e-11
-1.63234e-09
7.68248e-10
-1.64977e-09
1.53887e-09
-1.50564e-09
2.3778e-09
-1.41947e-09
3.23636e-09
-1.29243e-09
4.05867e-09
-1.14018e-09
4.83508e-09
-1.00024e-09
5.56156e-09
-8.68484e-10
6.23508e-09
-7.40895e-10
6.85178e-09
-6.13771e-10
7.41275e-09
-4.83999e-10
7.91739e-09
-3.53777e-10
8.36728e-09
-2.21841e-10
8.76471e-09
-8.91583e-11
9.11285e-09
4.3755e-11
9.41389e-09
1.7705e-10
9.67159e-09
3.07555e-10
9.88945e-09
4.35352e-10
1.0071e-08
5.59107e-10
1.02199e-08
6.77513e-10
1.03397e-08
7.90535e-10
1.04338e-08
8.98052e-10
1.05053e-08
1.00015e-09
1.05574e-08
1.0972e-09
1.05929e-08
1.18987e-09
1.06143e-08
1.27923e-09
1.06238e-08
1.36661e-09
1.06227e-08
1.45349e-09
1.06118e-08
1.54121e-09
1.05911e-08
1.6308e-09
1.05598e-08
1.72272e-09
1.05165e-08
1.81661e-09
1.04594e-08
1.91126e-09
1.03865e-08
2.00457e-09
1.02959e-08
2.09359e-09
1.01862e-08
2.17473e-09
1.00568e-08
2.24426e-09
9.9074e-09
2.29929e-09
9.73898e-09
2.33597e-09
9.55339e-09
2.35021e-09
9.35441e-09
2.33853e-09
9.14371e-09
2.30591e-09
8.92506e-09
2.25117e-09
8.70339e-09
2.1729e-09
8.48215e-09
2.07593e-09
8.26465e-09
1.96396e-09
8.05396e-09
1.84078e-09
7.85258e-09
1.71035e-09
7.66245e-09
1.57646e-09
7.48486e-09
1.44244e-09
7.32061e-09
1.31111e-09
7.17e-09
1.18468e-09
7.03295e-09
1.06478e-09
6.90909e-09
9.52527e-10
6.79781e-09
8.48575e-10
6.69835e-09
7.53225e-10
6.60987e-09
6.66481e-10
6.53147e-09
5.88128e-10
6.46222e-09
5.17791e-10
6.40126e-09
4.54984e-10
6.34772e-09
3.99156e-10
6.30081e-09
3.49721e-10
6.25977e-09
3.06086e-10
6.22395e-09
2.67671e-10
6.19272e-09
2.3392e-10
6.16553e-09
2.04312e-10
6.1419e-09
1.78368e-10
6.12139e-09
1.55649e-10
6.10361e-09
1.3576e-10
6.08822e-09
1.18346e-10
6.07494e-09
1.03095e-10
6.06349e-09
8.97304e-11
6.05367e-09
7.80087e-11
6.04526e-09
6.77181e-11
6.0381e-09
5.86738e-11
6.03203e-09
5.07149e-11
6.02693e-09
4.37022e-11
6.02267e-09
3.75146e-11
6.01917e-09
3.20471e-11
6.01634e-09
2.7209e-11
6.01408e-09
2.29222e-11
6.01235e-09
1.91191e-11
6.01108e-09
1.57413e-11
6.01022e-09
1.2738e-11
6.00972e-09
1.00658e-11
6.00954e-09
7.68823e-12
6.00965e-09
5.57403e-12
6.01001e-09
3.69728e-12
6.01059e-09
2.03715e-12
6.01136e-09
5.7816e-13
6.0123e-09
-6.88651e-13
6.01338e-09
-1.7672e-12
6.01457e-09
-2.65566e-12
6.01583e-09
-3.34417e-12
6.01714e-09
-3.8139e-12
6.01845e-09
-4.05257e-12
6.01971e-09
-4.03887e-12
6.02088e-09
-3.86009e-12
-3.72171e-12
-1.08416e-09
-2.62574e-09
-1.01749e-09
-1.69901e-09
-9.1968e-10
-1.74757e-09
-6.89882e-10
-1.73544e-09
-3.09653e-10
-1.7997e-09
1.94905e-10
-1.79699e-09
7.88032e-10
-1.73331e-09
1.42911e-09
-1.64132e-09
2.08829e-09
-1.52766e-09
2.74257e-09
-1.39518e-09
3.373e-09
-1.2442e-09
3.97108e-09
-1.08208e-09
4.52977e-09
-9.12468e-10
5.0457e-09
-7.37767e-10
5.51727e-09
-5.60726e-10
5.94473e-09
-3.83713e-10
6.33038e-09
-2.08596e-10
6.67597e-09
-3.80305e-11
6.98419e-09
1.27133e-10
7.25741e-09
2.85882e-10
7.49945e-09
4.35473e-10
7.71302e-09
5.76964e-10
7.90123e-09
7.09847e-10
8.06702e-09
8.34352e-10
8.21334e-09
9.5088e-10
8.34309e-09
1.06012e-09
8.45901e-09
1.16331e-09
8.56351e-09
1.26212e-09
8.65854e-09
1.35846e-09
8.7455e-09
1.45424e-09
8.82513e-09
1.55118e-09
8.89742e-09
1.65042e-09
8.96172e-09
1.75231e-09
9.01675e-09
1.85624e-09
9.06079e-09
1.96053e-09
9.09192e-09
2.06246e-09
9.10823e-09
2.15842e-09
9.108e-09
2.24448e-09
9.09046e-09
2.31684e-09
9.05525e-09
2.37118e-09
9.00044e-09
2.40502e-09
8.92797e-09
2.411e-09
8.84097e-09
2.3929e-09
8.74118e-09
2.35097e-09
8.63115e-09
2.28293e-09
8.51325e-09
2.19382e-09
8.39073e-09
2.08648e-09
8.26661e-09
1.9649e-09
8.14352e-09
1.83344e-09
8.02368e-09
1.6963e-09
7.90886e-09
1.55726e-09
7.8004e-09
1.41958e-09
7.69919e-09
1.28589e-09
7.60578e-09
1.15819e-09
7.52039e-09
1.03791e-09
7.44299e-09
9.25977e-10
7.37335e-09
8.22871e-10
7.31109e-09
7.28742e-10
7.25574e-09
6.4347e-10
7.2068e-09
5.66734e-10
7.16371e-09
4.98075e-10
7.12592e-09
4.36943e-10
7.0929e-09
3.82738e-10
7.06415e-09
3.34839e-10
7.03919e-09
2.92632e-10
7.01759e-09
2.55523e-10
6.99895e-09
2.22953e-10
6.98291e-09
1.94401e-10
6.96917e-09
1.69392e-10
6.95744e-09
1.47495e-10
6.94746e-09
1.28322e-10
6.93903e-09
1.11529e-10
6.93194e-09
9.68142e-11
6.92604e-09
8.39101e-11
6.92118e-09
7.25834e-11
6.91722e-09
6.26306e-11
6.91406e-09
5.38747e-11
6.9116e-09
4.61623e-11
6.90975e-09
3.93598e-11
6.90845e-09
3.33514e-11
6.90762e-09
2.80368e-11
6.90721e-09
2.33302e-11
6.90718e-09
1.91572e-11
6.90746e-09
1.54529e-11
6.90804e-09
1.21614e-11
6.90887e-09
9.23492e-12
6.90993e-09
6.63322e-12
6.91118e-09
4.3221e-12
6.9126e-09
2.27296e-12
6.91418e-09
4.62763e-13
6.91588e-09
-1.12509e-12
6.91769e-09
-2.49992e-12
6.91959e-09
-3.6648e-12
6.92155e-09
-4.61582e-12
6.92354e-09
-5.3392e-12
6.92554e-09
-5.81064e-12
6.9275e-09
-6.00658e-12
6.92936e-09
-5.90295e-12
6.93107e-09
-5.56973e-12
-5.25933e-12
-9.75857e-10
-1.64988e-09
-1.23905e-09
-1.43582e-09
-1.42298e-09
-1.56364e-09
-1.49597e-09
-1.66245e-09
-1.48796e-09
-1.80771e-09
-1.3719e-09
-1.91304e-09
-1.1419e-09
-1.9633e-09
-8.25645e-10
-1.95757e-09
-4.47978e-10
-1.90533e-09
-3.22157e-11
-1.81095e-09
4.01614e-10
-1.67803e-09
8.36482e-10
-1.51694e-09
1.26352e-09
-1.3395e-09
1.67612e-09
-1.15037e-09
2.06986e-09
-9.54464e-10
2.44232e-09
-7.56172e-10
2.79303e-09
-5.5931e-10
3.12202e-09
-3.67018e-10
3.43077e-09
-1.8162e-10
3.71877e-09
-2.11884e-12
3.99103e-09
1.63212e-10
4.24696e-09
3.21042e-10
4.48818e-09
4.68618e-10
4.71603e-09
6.06502e-10
4.93215e-09
7.34767e-10
5.13849e-09
8.53771e-10
5.33705e-09
9.6475e-10
5.52964e-09
1.06953e-09
5.71792e-09
1.17018e-09
5.90324e-09
1.26892e-09
6.08652e-09
1.3679e-09
6.26819e-09
1.46875e-09
6.44819e-09
1.57231e-09
6.62594e-09
1.67849e-09
6.80029e-09
1.78618e-09
6.96967e-09
1.89308e-09
7.13189e-09
1.9962e-09
7.28469e-09
2.09168e-09
7.42656e-09
2.17496e-09
7.55623e-09
2.24152e-09
7.67225e-09
2.28899e-09
7.77258e-09
2.31068e-09
7.85725e-09
2.30823e-09
7.92378e-09
2.28444e-09
7.97319e-09
2.23352e-09
8.00834e-09
2.15867e-09
8.03087e-09
2.06395e-09
8.04249e-09
1.95328e-09
8.0451e-09
1.83083e-09
8.04063e-09
1.70077e-09
8.03089e-09
1.567e-09
8.01751e-09
1.43296e-09
8.00189e-09
1.30151e-09
7.98517e-09
1.17491e-09
7.96825e-09
1.05483e-09
7.9518e-09
9.42425e-10
7.9363e-09
8.38374e-10
7.92205e-09
7.42991e-10
7.90923e-09
6.56288e-10
7.89792e-09
5.78047e-10
7.88811e-09
5.07881e-10
7.87976e-09
4.45294e-10
7.87278e-09
3.89717e-10
7.86707e-09
3.40552e-10
7.86251e-09
2.97193e-10
7.85898e-09
2.59051e-10
7.85637e-09
2.25561e-10
7.85457e-09
1.962e-10
7.85348e-09
1.70482e-10
7.85301e-09
1.47968e-10
7.85307e-09
1.28258e-10
7.8536e-09
1.11002e-10
7.85453e-09
9.58866e-11
7.8558e-09
8.26379e-11
7.85737e-09
7.10155e-11
7.85919e-09
6.0809e-11
7.86123e-09
5.18361e-11
7.86345e-09
4.39388e-11
7.86583e-09
3.6979e-11
7.86835e-09
3.08368e-11
7.87098e-09
2.54085e-11
7.8737e-09
2.06061e-11
7.87651e-09
1.63531e-11
7.87938e-09
1.25824e-11
7.8823e-09
9.23561e-12
7.88527e-09
6.26394e-12
7.88828e-09
3.62646e-12
7.89131e-09
1.28804e-12
7.89437e-09
-7.80734e-13
7.89743e-09
-2.60374e-12
7.90051e-09
-4.19762e-12
7.90358e-09
-5.57086e-12
7.90664e-09
-6.72498e-12
7.90967e-09
-7.65366e-12
7.91267e-09
-8.33736e-12
7.91561e-09
-8.74347e-12
7.91843e-09
-8.83554e-12
7.92111e-09
-8.57439e-12
7.92355e-09
-8.01211e-12
-7.38323e-12
-7.02047e-10
-9.47835e-10
-1.08163e-09
-1.05624e-09
-1.40208e-09
-1.24318e-09
-1.65319e-09
-1.41135e-09
-1.85773e-09
-1.60317e-09
-1.99967e-09
-1.77111e-09
-2.07262e-09
-1.89035e-09
-2.07851e-09
-1.95168e-09
-2.02721e-09
-1.95663e-09
-1.92707e-09
-1.91108e-09
-1.79651e-09
-1.80859e-09
-1.64246e-09
-1.67099e-09
-1.47304e-09
-1.50893e-09
-1.2935e-09
-1.32991e-09
-1.10723e-09
-1.14073e-09
-9.16411e-10
-9.46993e-10
-7.22435e-10
-7.53286e-10
-5.26245e-10
-5.63208e-10
-3.28398e-10
-3.79466e-10
-1.26681e-10
-2.03836e-10
7.50867e-11
-3.85559e-11
2.80653e-10
1.15476e-10
4.89365e-10
2.59906e-10
7.00329e-10
3.95538e-10
9.1347e-10
5.21627e-10
1.1293e-09
6.37939e-10
1.34837e-09
7.45682e-10
1.57118e-09
8.46722e-10
1.79837e-09
9.42988e-10
2.03058e-09
1.03672e-09
2.26829e-09
1.13019e-09
2.51187e-09
1.22517e-09
2.76154e-09
1.32263e-09
3.01726e-09
1.42278e-09
3.2786e-09
1.52483e-09
3.54481e-09
1.62687e-09
3.81448e-09
1.72654e-09
4.08571e-09
1.82045e-09
4.35623e-09
1.90444e-09
4.62304e-09
1.97471e-09
4.88382e-09
2.02822e-09
5.13475e-09
2.05975e-09
5.3742e-09
2.06878e-09
5.60115e-09
2.05748e-09
5.81201e-09
2.02266e-09
6.00577e-09
1.96491e-09
6.18242e-09
1.8873e-09
6.34216e-09
1.79354e-09
6.48551e-09
1.68748e-09
6.61331e-09
1.57297e-09
6.72667e-09
1.45363e-09
6.82687e-09
1.33276e-09
6.91523e-09
1.21315e-09
6.99308e-09
1.09707e-09
7.06166e-09
9.86247e-10
7.12215e-09
8.81936e-10
7.17559e-09
7.84937e-10
7.2229e-09
6.95681e-10
7.26489e-09
6.14295e-10
7.30227e-09
5.40669e-10
7.33564e-09
4.74515e-10
7.36551e-09
4.15418e-10
7.39234e-09
3.62887e-10
7.41651e-09
3.16384e-10
7.43835e-09
2.75359e-10
7.45813e-09
2.39266e-10
7.47611e-09
2.07583e-10
7.49249e-09
1.79817e-10
7.50746e-09
1.55513e-10
7.52118e-09
1.3425e-10
7.53379e-09
1.15652e-10
7.5454e-09
9.93827e-11
7.55614e-09
8.51474e-11
7.5661e-09
7.26835e-11
7.57535e-09
6.17627e-11
7.58398e-09
5.21837e-11
7.59204e-09
4.37737e-11
7.59959e-09
3.63832e-11
7.60669e-09
2.98799e-11
7.61338e-09
2.4149e-11
7.6197e-09
1.90914e-11
7.62568e-09
1.46253e-11
7.63135e-09
1.06784e-11
7.63675e-09
7.18626e-12
7.64189e-09
4.09261e-12
7.6468e-09
1.35201e-12
7.6515e-09
-1.07308e-12
7.65601e-09
-3.21607e-12
7.66033e-09
-5.10495e-12
7.66449e-09
-6.76365e-12
7.6685e-09
-8.20725e-12
7.67237e-09
-9.44124e-12
7.67611e-09
-1.04652e-11
7.67973e-09
-1.12715e-11
7.68323e-09
-1.18336e-11
7.68659e-09
-1.21097e-11
7.68981e-09
-1.20537e-11
7.69283e-09
-1.15947e-11
7.69561e-09
-1.07875e-11
-9.67953e-12
-4.56991e-10
-4.90844e-10
-7.86228e-10
-7.27001e-10
-1.09544e-09
-9.33972e-10
-1.38991e-09
-1.11687e-09
-1.67646e-09
-1.31663e-09
-1.94278e-09
-1.50478e-09
-2.17518e-09
-1.65795e-09
-2.36635e-09
-1.76051e-09
-2.51778e-09
-1.8052e-09
-2.63321e-09
-1.79565e-09
-2.7137e-09
-1.7281e-09
-2.76499e-09
-1.61971e-09
-2.79257e-09
-1.48135e-09
-2.79903e-09
-1.32345e-09
-2.78612e-09
-1.15364e-09
-2.75503e-09
-9.78083e-10
-2.70668e-09
-8.01637e-10
-2.64186e-09
-6.28025e-10
-2.56124e-09
-4.60088e-10
-2.46532e-09
-2.9976e-10
-2.3548e-09
-1.49072e-10
-2.23046e-09
-8.86281e-12
-2.09173e-09
1.2117e-10
-1.94057e-09
2.4438e-10
-1.77792e-09
3.58973e-10
-1.60406e-09
4.64081e-10
-1.41938e-09
5.61004e-10
-1.22433e-09
6.51673e-10
-1.01904e-09
7.37694e-10
-8.03457e-10
8.21134e-10
-5.77526e-10
9.04258e-10
-3.41096e-10
9.88743e-10
-9.38916e-11
1.07542e-09
1.6426e-10
1.16463e-09
4.33388e-10
1.2557e-09
7.13357e-10
1.3469e-09
1.0033e-09
1.43659e-09
1.30163e-09
1.52213e-09
1.60628e-09
1.59978e-09
1.91472e-09
1.66627e-09
2.22433e-09
1.71861e-09
2.53141e-09
1.75267e-09
2.83278e-09
1.76741e-09
3.12628e-09
1.76398e-09
3.40843e-09
1.74051e-09
3.67649e-09
1.69685e-09
3.92875e-09
1.63504e-09
4.16405e-09
1.55824e-09
4.38169e-09
1.46984e-09
4.58147e-09
1.37319e-09
4.76363e-09
1.27147e-09
4.92879e-09
1.16761e-09
5.07782e-09
1.06413e-09
5.21176e-09
9.63119e-10
5.33179e-09
8.66225e-10
5.43907e-09
7.74649e-10
5.53481e-09
6.89205e-10
5.62012e-09
6.10365e-10
5.69609e-09
5.38322e-10
5.76372e-09
4.73042e-10
5.82392e-09
4.1432e-10
5.87751e-09
3.61824e-10
5.92525e-09
3.15145e-10
5.96781e-09
2.73822e-10
6.00579e-09
2.37377e-10
6.03973e-09
2.05333e-10
6.07008e-09
1.77228e-10
6.09728e-09
1.52624e-10
6.12167e-09
1.31115e-10
6.1436e-09
1.12324e-10
6.16334e-09
9.59093e-11
6.18115e-09
8.15715e-11
6.19725e-09
6.90471e-11
6.21184e-09
5.8099e-11
6.22508e-09
4.85242e-11
6.23712e-09
4.014e-11
6.2481e-09
3.27936e-11
6.25813e-09
2.63527e-11
6.26731e-09
2.06975e-11
6.27574e-09
1.57245e-11
6.28349e-09
1.13434e-11
6.29062e-09
7.48675e-12
6.29721e-09
4.0884e-12
6.30331e-09
1.09153e-12
6.30896e-09
-1.55677e-12
6.31421e-09
-3.89522e-12
6.31909e-09
-5.95525e-12
6.32364e-09
-7.7671e-12
6.32789e-09
-9.35631e-12
6.33187e-09
-1.07463e-11
6.33561e-09
-1.19487e-11
6.33914e-09
-1.29643e-11
6.34246e-09
-1.37917e-11
6.34562e-09
-1.4425e-11
6.34861e-09
-1.48296e-11
6.35146e-09
-1.4957e-11
6.35417e-09
-1.47615e-11
6.3567e-09
-1.41251e-11
6.35907e-09
-1.31549e-11
-1.14962e-11
-2.86592e-10
-2.04252e-10
-5.43364e-10
-4.70229e-10
-8.09626e-10
-6.6771e-10
-1.09241e-09
-8.34085e-10
-1.39268e-09
-1.01636e-09
-1.69981e-09
-1.19765e-09
-1.99962e-09
-1.35815e-09
-2.27993e-09
-1.4802e-09
-2.53276e-09
-1.55236e-09
-2.7575e-09
-1.57092e-09
-2.94989e-09
-1.53571e-09
-3.11209e-09