/*--------------------------------*- C++ -*----------------------------------*\
| =========                 |                                                 |
| \\      /  F ield         | OpenFOAM: The Open Source CFD Toolbox           |
|  \\    /   O peration     | Version:  2506                                  |
|   \\  /    A nd           | Website:  www.openfoam.com                      |
|    \\/     M anipulation  |                                                 |
\*---------------------------------------------------------------------------*/
FoamFile
{
    version     2.0;
    format      ascii;
    arch        "LSB;label=32;scalar=64";
    class       volScalarField;
    location    "2000/air";
    object      alphat;
}
// * * * * * * * * * * * * * * * * * * * * * * * * * * * * * * * * * * * * * //

dimensions      [1 -1 -1 0 0 0 0];

internalField   nonuniform List<scalar> 
33752
(
0.0094382
0.009402477
0.009370895
0.009346602
0.00932705
0.009310657
0.009296518
0.009284092
0.009273113
0.009263515
0.009255557
0.009249444
0.009245466
0.00924392
0.009245051
0.009249013
0.009255843
0.009265457
0.009277659
0.009292169
0.009308669
0.009326851
0.009346468
0.009367394
0.009389689
0.009413689
0.009440125
0.00947049
0.009507478
0.009547973
0.009401667
0.009344805
0.009301426
0.009271312
0.009248842
0.009230945
0.009215944
0.009202912
0.009191404
0.009181326
0.009172915
0.009166349
0.009161945
0.009160032
0.009160884
0.009164672
0.009171439
0.009181088
0.009193403
0.009208078
0.009224772
0.009243168
0.009263045
0.009284364
0.009307383
0.00933285
0.009362293
0.009398685
0.009447663
0.009509135
0.009369568
0.009300667
0.00924641
0.009208971
0.009181783
0.009160742
0.009143448
0.009128542
0.009115347
0.009103688
0.009093806
0.009085899
0.009080343
0.009077534
0.009077805
0.009081364
0.009088261
0.009098379
0.009111454
0.00912712
0.009144977
0.009164676
0.009186017
0.00920906
0.009234296
0.009262896
0.009297074
0.009340744
0.009400374
0.009473591
0.009344465
0.009269528
0.009207782
0.009163937
0.009131706
0.009106708
0.009086145
0.009068344
0.009052434
0.00903818
0.009025871
0.009015768
0.009008351
0.00900413
0.009003538
0.009006844
0.009014112
0.00902519
0.009039733
0.009057269
0.009077291
0.009099374
0.009123293
0.00914917
0.009177653
0.009210179
0.009249284
0.009299108
0.009365918
0.009444995
0.009323745
0.009245757
0.009179118
0.009130107
0.009092976
0.009063533
0.009038908
0.009017271
0.008997621
0.008979726
0.008963967
0.008950718
0.008940628
0.008934389
0.008932586
0.00893559
0.00894349
0.008956078
0.008972882
0.008993262
0.009016534
0.009042123
0.009069715
0.009099417
0.009131929
0.009168776
0.009212529
0.009267205
0.009338663
0.009420685
0.009305873
0.009226323
0.009156421
0.009103301
0.009061615
0.009027471
0.008998144
0.008971811
0.008947413
0.008924825
0.008904539
0.008887108
0.00887343
0.008864463
0.008861027
0.008863642
0.008872445
0.008887149
0.008907098
0.008931391
0.00895907
0.008989318
0.009021643
0.009056041
0.009093161
0.009134486
0.0091825
0.009241021
0.009315587
0.009399096
0.009290014
0.009209601
0.009137354
0.009080851
0.009034957
0.008995999
0.008961453
0.008929639
0.008899519
0.008871224
0.008845327
0.008822628
0.008804357
0.008791841
0.008786254
0.008788331
0.008798295
0.008815768
0.00883982
0.008869182
0.008902492
0.008938569
0.008976638
0.0090165
0.00905868
0.009104569
0.009156546
0.009218279
0.009295104
0.009379421
0.0092757
0.009194726
0.009120615
0.009061171
0.009011328
0.00896752
0.008927367
0.008889388
0.008852675
0.008817816
0.008785302
0.008756248
0.00873232
0.008715296
0.008706875
0.008708164
0.008719552
0.008740507
0.00876964
0.008805256
0.008845434
0.008888469
0.008933215
0.008979215
0.009026836
0.009077384
0.009133164
0.009197762
0.009276421
0.00936126
0.009262733
0.009181311
0.009105588
0.009043464
0.008989861
0.008941224
0.008895233
0.008850559
0.008806747
0.008764643
0.008724455
0.008687628
0.008656577
0.008633956
0.008622069
0.008622452
0.008635533
0.008660603
0.008695997
0.008739197
0.008787553
0.008838562
0.00889079
0.008943483
0.008996858
0.009052161
0.009111673
0.009178955
0.009259245
0.009344511
0.009251104
0.009169275
0.009092091
0.009027475
0.008970288
0.008916928
0.008865068
0.008813473
0.008762429
0.008712246
0.008663241
0.008617603
0.00857835
0.008549098
0.008533048
0.008532508
0.00854806
0.008578389
0.008620895
0.008672224
0.008729231
0.008789184
0.008849589
0.008909369
0.008968687
0.009028778
0.009091949
0.009161797
0.009243608
0.009329286
0.009240933
0.00915873
0.009080218
0.009013312
0.008952779
0.008894935
0.008837422
0.008779063
0.008720799
0.008662121
0.008603497
0.008547566
0.008498567
0.008463819
0.008445953
0.008444792
0.008460946
0.008494354
0.008545491
0.008606515
0.008673074
0.008741952
0.008810588
0.00887759
0.008942821
0.009007579
0.00907425
0.009146516
0.009229752
0.009315846
0.009232369
0.009149905
0.009070235
0.009001309
0.008937792
0.008875903
0.008813235
0.008748661
0.008683509
0.008616181
0.008547456
0.008480747
0.008429525
0.008392074
0.008370925
0.008368901
0.008386804
0.008423046
0.008474783
0.008544486
0.008621091
0.008699089
0.008775707
0.008849404
0.008920169
0.008989227
0.00905908
0.009133525
0.00921805
0.009304553
0.009225979
0.00914313
0.009062493
0.008991911
0.008925936
0.008860679
0.008793684
0.008723927
0.008652557
0.008577338
0.00849929
0.008430232
0.008373572
0.008330459
0.008305689
0.008302709
0.008322507
0.008363226
0.00842056
0.008490565
0.008576602
0.008663079
0.008746876
0.008826453
0.008901874
0.008974558
0.009047076
0.009123335
0.009208942
0.009295827
0.009221573
0.009138622
0.009057323
0.008985564
0.008917826
0.008850128
0.008779945
0.008706433
0.008630307
0.00854902
0.008465355
0.0083943
0.008332258
0.008284569
0.008256853
0.008253002
0.0082742
0.00831845
0.008380688
0.008454406
0.008543441
0.00863679
0.008726161
0.008810189
0.00888912
0.008964448
0.009038947
0.009116531
0.009202933
0.009290152
0.009219711
0.009136655
0.009055004
0.008982625
0.008913957
0.008844981
0.008773106
0.008697498
0.008618761
0.008534081
0.00844901
0.008375254
0.008310177
0.008259927
0.008230512
0.008226089
0.008247968
0.008294137
0.008358981
0.008435087
0.008525216
0.008622814
0.008715316
0.008801753
0.008882552
0.008959269
0.009034785
0.009113065
0.009199899
0.009287326
0.009220429
0.009137379
0.00905572
0.008983321
0.008914621
0.008845603
0.008773677
0.008698016
0.00861922
0.008534482
0.008449365
0.008375557
0.008310433
0.008260144
0.008230697
0.008226245
0.008248099
0.008294247
0.008359082
0.008435192
0.008525331
0.008622931
0.008715448
0.008801904
0.008882723
0.008959454
0.009034987
0.009113285
0.009200142
0.009287598
0.0092237
0.009140778
0.009059461
0.008987643
0.008919809
0.008851987
0.008781653
0.008707979
0.00863168
0.008550216
0.008466411
0.008395199
0.008333014
0.008285204
0.008257387
0.008253449
0.008274573
0.008318766
0.008380979
0.008454706
0.008543763
0.008637138
0.008726558
0.008810651
0.008889651
0.00896503
0.009039586
0.009117225
0.009203695
0.009291015
0.009229412
0.009146694
0.009066034
0.008995352
0.00892922
0.008863757
0.008796518
0.008726488
0.008654831
0.008579314
0.008500974
0.008431709
0.008374814
0.008331492
0.008306547
0.00830342
0.0083231
0.008363739
0.008421042
0.008491065
0.008577124
0.008663655
0.008747541
0.008827253
0.008902845
0.008975638
0.009048301
0.00912466
0.00921037
0.009297423
0.009237462
0.009154909
0.009075159
0.009006083
0.008942346
0.008880173
0.008817169
0.008752218
0.008686669
0.008618918
0.00854972
0.008482728
0.008431243
0.008393501
0.008372101
0.008369871
0.008387621
0.008423766
0.008475467
0.008545167
0.008621811
0.008699889
0.008776621
0.008850473
0.008921432
0.008990621
0.00906064
0.009135202
0.009219842
0.009306517
0.0092473
0.009165078
0.009086471
0.009019373
0.008958559
0.008900358
0.008842423
0.008783589
0.008724822
0.008665633
0.008606494
0.008550112
0.008500715
0.008465647
0.008447463
0.008446045
0.008462012
0.008495289
0.008546362
0.008607386
0.008674003
0.00874298
0.008811733
0.008878868
0.008944232
0.009009108
0.009075897
0.00914827
0.009231609
0.009317812
0.009258752
0.009176915
0.009099616
0.009034766
0.008977238
0.008923448
0.008871087
0.008818933
0.008767307
0.008716505
0.008666897
0.008620697
0.008580937
0.008551245
0.008534829
0.008533997
0.008549331
0.00857952
0.008621966
0.008673307
0.008730378
0.008790443
0.008850974
0.008910881
0.008970325
0.009030541
0.00909383
0.009163786
0.009245687
0.00933144
0.009271611
0.009190179
0.009114319
0.009051915
0.008997911
0.008948774
0.008902204
0.008856892
0.008812408
0.008769612
0.008728737
0.00869126
0.008659617
0.008636484
0.008624169
0.008624214
0.00863705
0.008661965
0.008697295
0.008740511
0.008788946
0.008840058
0.008892408
0.008945232
0.008998746
0.009054189
0.009113832
0.009181224
0.009261591
0.009346918
0.009285737
0.009204748
0.009130474
0.009070703
0.009020396
0.008976017
0.008935211
0.00889652
0.008859052
0.008823433
0.008790169
0.008760401
0.008735819
0.008718218
0.008709316
0.008710227
0.008721342
0.008742129
0.008771185
0.008806804
0.008847044
0.008890177
0.008935048
0.008981192
0.009028972
0.009079681
0.009135609
0.009200319
0.009279017
0.009363925
0.009301121
0.009220688
0.009148249
0.009091373
0.009044951
0.009005349
0.008970075
0.008937477
0.008906535
0.008877415
0.008850712
0.008827247
0.008808276
0.008795141
0.008789034
0.008790699
0.008800361
0.008817638
0.008841591
0.008870935
0.008904291
0.008940463
0.008978664
0.00901869
0.009061053
0.009107128
0.009159274
0.009221142
0.00929805
0.009382418
0.009317943
0.009238367
0.009168247
0.009114706
0.009072429
0.00903757
0.00900744
0.008980253
0.00895497
0.0089315
0.008910359
0.008892121
0.008877706
0.008868088
0.008864101
0.008866275
0.008874748
0.008889229
0.008909055
0.008933312
0.008961028
0.008991373
0.009023844
0.009058427
0.009095754
0.009137289
0.009185495
0.00924417
0.009318837
0.009402398
0.009336648
0.009258626
0.009191743
0.009142266
0.009104488
0.009074262
0.009048766
0.009026208
0.009005614
0.008986786
0.008970129
0.008956039
0.008945182
0.008938266
0.008935889
0.008938427
0.008945974
0.008958318
0.008974982
0.008995314
0.00901862
0.009044314
0.00907207
0.009101977
0.009134718
0.009171797
0.009215763
0.009270609
0.00934218
0.009424256
0.009358039
0.00928306
0.009221047
0.009176698
0.009143769
0.009117932
0.009096438
0.009077659
0.009060755
0.009045523
0.009032282
0.009021309
0.009013101
0.009008185
0.009006999
0.009009823
0.009016723
0.009027545
0.009041938
0.009059422
0.009079482
0.00910168
0.009125777
0.009151876
0.009180608
0.009213385
0.009252719
0.009302727
0.009369657
0.009448789
0.009383618
0.009314665
0.009260121
0.009222149
0.009194224
0.009172303
0.009154035
0.009138108
0.009123883
0.009111212
0.009100372
0.009091575
0.009085213
0.009081696
0.009081364
0.009084432
0.009090953
0.009100809
0.009113731
0.009129347
0.009147247
0.00916707
0.0091886
0.00921188
0.009237378
0.009266241
0.00930066
0.009344523
0.009404281
0.009477555
0.009415972
0.009359044
0.009315359
0.009284693
0.009261464
0.009242663
0.009226665
0.009212591
0.009200032
0.009188926
0.009179544
0.009172079
0.009166864
0.00916424
0.009164487
0.009167784
0.009174173
0.009183561
0.009195725
0.009210354
0.009227096
0.009245623
0.009265696
0.009287258
0.009310546
0.009336282
0.009365971
0.009402562
0.009451673
0.009513205
0.009452572
0.00941675
0.009384847
0.009359991
0.009339677
0.009322375
0.009307234
0.009293762
0.009281732
0.009271106
0.009262177
0.009255169
0.009250384
0.00924813
0.009248661
0.009252136
0.009258594
0.00926795
0.009280004
0.009294471
0.009311023
0.009329338
0.009349154
0.009370325
0.009392889
0.009417159
0.00944384
0.009474404
0.009511526
0.009552085
0.08922376
0.08935126
0.08938308
0.08934502
0.08927145
0.08918063
0.089082
0.08898111
0.08888238
0.08879012
0.08870889
0.08864433
0.08860173
0.0885858
0.08860019
0.088647
0.08872655
0.08883724
0.08897578
0.08913746
0.08931661
0.08950705
0.08970243
0.08989631
0.09008177
0.09025022
0.09038885
0.09047571
0.09047221
0.09034888
0.08935024
0.08953772
0.0895993
0.08956872
0.08949143
0.08939158
0.08928147
0.08916808
0.08905651
0.08895148
0.08885816
0.08878299
0.0887318
0.08870983
0.08872107
0.08876782
0.08885034
0.08896685
0.08911362
0.08928543
0.089476
0.08967854
0.0898861
0.09009164
0.09028748
0.09046367
0.09060474
0.09068345
0.09065133
0.09047159
0.08937467
0.0895934
0.08967587
0.08964951
0.08956423
0.08944866
0.08931822
0.08918179
0.08904582
0.08891615
0.08879916
0.08870276
0.08863411
0.08859955
0.0886039
0.08864988
0.08873775
0.0888652
0.08902767
0.08921874
0.08943084
0.08965586
0.08988559
0.09011182
0.09032562
0.09051545
0.09066337
0.09073861
0.09068885
0.09048166
0.08932422
0.08955214
0.0896402
0.0896101
0.08951129
0.08937372
0.08921468
0.08904496
0.08887284
0.08870592
0.08855267
0.08842339
0.08832742
0.088273
0.08826636
0.08831096
0.08840698
0.08855135
0.08873801
0.08895864
0.08920347
0.08946219
0.08972462
0.08998079
0.09022029
0.09043023
0.09059145
0.09067234
0.09062031
0.09040634
0.08923412
0.08945981
0.08954176
0.08949941
0.08938059
0.08921429
0.08901822
0.08880457
0.08858374
0.08836564
0.08816193
0.08798643
0.0878518
0.08776919
0.08774697
0.08778966
0.08789738
0.08806582
0.08828674
0.08854889
0.08883928
0.0891444
0.08945124
0.08974763
0.09002157
0.09025926
0.09044137
0.09053675
0.09049335
0.09028302
0.08912332
0.08934117
0.08940929
0.08934692
0.0892007
0.08899801
0.08875578
0.08848681
0.08820358
0.08791861
0.08764822
0.08741111
0.08722469
0.08710429
0.08706132
0.0871018
0.08722569
0.0874269
0.08769402
0.08801171
0.08836245
0.08872844
0.08909301
0.08944133
0.08975982
0.09003411
0.09024517
0.09036258
0.09033471
0.0901331
0.08900193
0.08920923
0.08925873
0.08917001
0.08898902
0.0887417
0.08844362
0.08810733
0.08774695
0.08737763
0.08702229
0.08670601
0.08645274
0.08628356
0.08621412
0.08625246
0.08639818
0.08664267
0.08697009
0.08735948
0.08778735
0.08823033
0.08866731
0.08908039
0.08945437
0.08977448
0.09002206
0.09016745
0.09015937
0.08996891
0.08887611
0.08907162
0.08909961
0.08897985
0.08875769
0.0884578
0.08809427
0.0876786
0.08722566
0.0867533
0.0862932
0.08587866
0.08554195
0.08531165
0.08520948
0.08524604
0.0854205
0.08572078
0.08612483
0.08660403
0.08712724
0.08766433
0.08818893
0.08867974
0.0891199
0.08949427
0.08978474
0.08996251
0.08997685
0.0897987
0.08875063
0.08893392
0.0889389
0.08878513
0.08851713
0.0881582
0.08772082
0.08721485
0.08665406
0.08606084
0.08547751
0.08494699
0.08451034
0.08420473
0.08405955
0.08409317
0.0843054
0.08467749
0.08517657
0.08576454
0.08640115
0.08704881
0.08767506
0.08825503
0.08877025
0.0892055
0.08954343
0.08975639
0.08979456
0.08962913
0.08863014
0.08880136
0.08878307
0.0885942
0.08827807
0.08785632
0.0873395
0.08673532
0.08605439
0.08532814
0.08460748
0.08394193
0.08338048
0.08296988
0.08275743
0.08278388
0.08305162
0.08352605
0.08414799
0.08486911
0.08563851
0.08641018
0.08714819
0.08782494
0.08842069
0.08892045
0.08930801
0.08955722
0.08961946
0.0894666
0.08851959
0.08867943
0.08863886
0.08841586
0.08805226
0.08756774
0.08697046
0.08626553
0.08546026
0.0845955
0.08372739
0.08290463
0.08216409
0.08154674
0.08115493
0.08115756
0.08156627
0.08226818
0.08307309
0.08395893
0.08487634
0.08578166
0.08663636
0.08741172
0.0880885
0.08865247
0.08908891
0.08937336
0.08945867
0.08931763
0.08842421
0.08857384
0.08851327
0.08825931
0.0878522
0.08730952
0.08663679
0.08583616
0.08491189
0.08391379
0.08289067
0.08185241
0.08070725
0.07984608
0.07937407
0.07936546
0.07982978
0.08071375
0.08192815
0.08308242
0.08416598
0.08520413
0.08617089
0.08703988
0.08779231
0.08841565
0.08889686
0.0892133
0.08931932
0.08918872
0.0883484
0.08849002
0.0884131
0.08813353
0.08769016
0.08709864
0.08636199
0.08547932
0.08445349
0.08333524
0.08214173
0.08070797
0.07937027
0.07836058
0.07781039
0.0777911
0.07831256
0.07932206
0.08070665
0.08228339
0.08356012
0.08472182
0.08578562
0.08673406
0.08755054
0.08822368
0.08874222
0.08908513
0.08920813
0.08908591
0.08829732
0.08843295
0.08834432
0.0880464
0.08757693
0.08695009
0.086167
0.08522453
0.08412373
0.08290979
0.08154602
0.07985997
0.07837548
0.0772636
0.07665671
0.07663019
0.07719448
0.07829287
0.07980548
0.0815519
0.08310357
0.08437404
0.08551062
0.08651678
0.0873794
0.08808848
0.08863377
0.08899563
0.08913067
0.08901419
0.0882735
0.08840612
0.08831137
0.08800379
0.08752055
0.0868751
0.08606771
0.08509309
0.08395179
0.08267855
0.08116012
0.07940214
0.07784659
0.07668177
0.07604506
0.07601514
0.07660275
0.07774827
0.0793274
0.08114819
0.08286287
0.08419322
0.08536826
0.08640471
0.08729154
0.08801951
0.08857889
0.08895067
0.08909198
0.08897841
0.08827873
0.08841131
0.08831648
0.08800875
0.08752528
0.08687953
0.0860718
0.08509681
0.0839551
0.08268145
0.08116254
0.07940418
0.07784829
0.07668319
0.07604627
0.07601621
0.07660373
0.07774921
0.07932836
0.08114923
0.08286401
0.08419451
0.08536971
0.08640632
0.08729329
0.08802138
0.08858086
0.08895269
0.08909398
0.08898035
0.08831299
0.08844847
0.08835958
0.0880612
0.08759105
0.08696334
0.08617924
0.08523564
0.08413363
0.08291847
0.08155331
0.07986609
0.07838059
0.07726789
0.07666036
0.07663339
0.07719741
0.0782957
0.07980842
0.08155514
0.08310707
0.08437792
0.08551495
0.08652155
0.08738457
0.08809402
0.08863956
0.08900155
0.08913656
0.08901982
0.08837448
0.08851572
0.08843834
0.08815801
0.08771353
0.08712057
0.08638224
0.08549771
0.08446991
0.08334969
0.08215427
0.08071833
0.07937891
0.07836784
0.07781657
0.07779652
0.07831753
0.0793269
0.08071168
0.08228887
0.08356597
0.08472826
0.08579277
0.08674187
0.08755887
0.08823253
0.08875139
0.08909451
0.08921747
0.08909475
0.08845969
0.08860931
0.08854822
0.08829321
0.08788457
0.08733992
0.08666485
0.08586166
0.08493469
0.08393391
0.08290834
0.08186748
0.08071965
0.0798565
0.07938296
0.07937327
0.07983697
0.08072078
0.08193548
0.08309002
0.08417411
0.08521308
0.08618081
0.08705072
0.0878039
0.08842794
0.08890964
0.0892264
0.08933245
0.08920137
0.08856477
0.08872443
0.08868316
0.08845882
0.0880933
0.0876063
0.08700609
0.08629791
0.08548923
0.08462104
0.08374968
0.08292386
0.08218054
0.0815606
0.0811668
0.08116806
0.081576
0.08227762
0.08308245
0.08396857
0.0848867
0.08579308
0.086649
0.08742555
0.08810341
0.08866833
0.0891055
0.08939044
0.08947592
0.08933468
0.0886845
0.08885543
0.08883626
0.08864578
0.08832733
0.08790264
0.08738235
0.08677433
0.08608935
0.08535897
0.08463436
0.08396514
0.08340042
0.08298702
0.08277231
0.08279705
0.08306364
0.08353745
0.08415928
0.0848808
0.0856511
0.08642402
0.08716342
0.08784156
0.0884386
0.08893948
0.08932797
0.08957783
0.08964038
0.0894875
0.08881361
0.08899653
0.08900044
0.08884478
0.08857409
0.08821178
0.08777044
0.08726009
0.08669468
0.08609675
0.08550884
0.08497408
0.08453363
0.08422478
0.08407697
0.08410859
0.08431947
0.08469085
0.08518986
0.08577835
0.08641599
0.08706501
0.08769277
0.08827427
0.08879096
0.08922753
0.08956656
0.08978033
0.08981895
0.0896536
0.0889471
0.08914214
0.08916887
0.08904692
0.08882172
0.08851804
0.08815012
0.0877296
0.08727155
0.086794
0.08632883
0.08590954
0.08556856
0.08533459
0.08522945
0.08526374
0.08543669
0.08573619
0.08614018
0.08661996
0.08714424
0.08768275
0.08820896
0.08870144
0.08914326
0.08951917
0.08981093
0.08998968
0.09000462
0.08982661
0.08908025
0.08928697
0.08933499
0.0892438
0.0890594
0.08880789
0.08850502
0.08816348
0.08779759
0.08742268
0.08706188
0.08674047
0.08648256
0.08630936
0.08623665
0.0862725
0.08641654
0.08666015
0.08698744
0.08737738
0.08780632
0.08825076
0.08868945
0.08910437
0.08948022
0.08980207
0.09005115
0.09019766
0.09019024
0.08999996
0.08920816
0.08942531
0.08949175
0.08942661
0.08927663
0.08906937
0.08882196
0.08854738
0.0882583
0.08796742
0.08769127
0.08744873
0.08725739
0.08713272
0.08708623
0.08712401
0.08724605
0.08744625
0.08771315
0.08803132
0.08838312
0.08875061
0.08911701
0.08946735
0.08978792
0.09006419
0.09027695
0.09039563
0.09036848
0.09016707
0.08932455
0.08954944
0.0896295
0.0895841
0.08946119
0.08928997
0.08908835
0.08886876
0.08864178
0.0884175
0.08820777
0.08802661
0.08788685
0.08779978
0.08777385
0.08781367
0.08791939
0.08808669
0.0883073
0.08856987
0.08886131
0.08916801
0.08947681
0.08977541
0.09005163
0.09029151
0.09047551
0.0905723
0.09052971
0.0903196
0.08941917
0.08964618
0.08973218
0.08969879
0.08959561
0.08945279
0.08928789
0.08911191
0.08893336
0.08876003
0.08860057
0.08846545
0.08836419
0.08830514
0.08829466
0.08833625
0.08843016
0.0885733
0.08875958
0.08898061
0.08922652
0.0894869
0.08975142
0.09000996
0.09025193
0.09046423
0.09062751
0.09070994
0.09065881
0.09044508
0.0894729
0.08969065
0.08977094
0.0897411
0.0896512
0.08953013
0.08939356
0.08925062
0.089108
0.08897172
0.08884835
0.08874599
0.08867193
0.08863265
0.08863306
0.08867595
0.08876163
0.0888878
0.08904985
0.08924132
0.08945455
0.08968129
0.08991322
0.09014195
0.09035836
0.09055069
0.09070079
0.09077768
0.0907289
0.09052199
0.08945043
0.0896369
0.08969623
0.08966205
0.08957999
0.08947444
0.08935802
0.08923793
0.08911954
0.08900777
0.08890796
0.08882674
0.08877008
0.08874333
0.08875059
0.08879421
0.08887451
0.0889897
0.08913606
0.08930827
0.0895
0.08970432
0.08991415
0.09012226
0.09032078
0.09049956
0.09064289
0.09072334
0.09069227
0.09051286
0.08932475
0.08945127
0.0894808
0.08943908
0.08936065
0.08926403
0.08915897
0.08905129
0.08894565
0.08884657
0.08875881
0.08868816
0.08864006
0.08861933
0.08862972
0.0886734
0.08875072
0.08886009
0.0889982
0.0891603
0.08934062
0.08953286
0.08973053
0.089927
0.09011517
0.09028623
0.09042716
0.0905158
0.0905134
0.09039047
0.1914032
0.1914995
0.1915129
0.1914297
0.1912756
0.1910739
0.1908411
0.1905898
0.1903323
0.1900821
0.1898551
0.1896689
0.1895407
0.189486
0.1895169
0.1896401
0.1898571
0.1901631
0.1905479
0.1909969
0.1914924
0.192015
0.1925451
0.1930632
0.1935499
0.1939837
0.1943391
0.1945831
0.1946808
0.1946382
0.1914807
0.1916359
0.1916893
0.1916175
0.1914538
0.1912289
0.1909645
0.1906765
0.1903797
0.1900895
0.189824
0.1896031
0.1894464
0.1893713
0.189391
0.1895133
0.1897395
0.1900641
0.1904756
0.1909575
0.1914898
0.1920511
0.1926194
0.1931732
0.1936906
0.1941471
0.194512
0.1947451
0.1948038
0.1947033
0.191461
0.1916566
0.1917395
0.1916685
0.1914789
0.1912079
0.1908828
0.1905243
0.1901509
0.1897821
0.1894404
0.1891505
0.1889366
0.18882
0.1888167
0.1889363
0.1891799
0.1895407
0.1900042
0.19055
0.1911537
0.1917892
0.1924304
0.1930516
0.193627
0.1941277
0.1945178
0.194751
0.1947823
0.1946428
0.1913338
0.1915415
0.1916258
0.1915327
0.1912953
0.1909532
0.1905379
0.1900743
0.1895861
0.1890985
0.1886406
0.1882449
0.1879427
0.1877616
0.1877225
0.1878374
0.1881075
0.1885236
0.1890665
0.1897095
0.1904213
0.1911684
0.191918
0.1926389
0.1933005
0.1938698
0.1943071
0.1945635
0.1945954
0.1944451
0.1911271
0.1913258
0.1913855
0.1912456
0.190936
0.1904961
0.1899594
0.1893545
0.1887106
0.1880604
0.1874421
0.1868992
0.1864737
0.1862023
0.1861131
0.1862214
0.1865287
0.1870221
0.1876758
0.1884539
0.1893147
0.1902146
0.1911118
0.1919676
0.1927462
0.1934111
0.1939203
0.1942249
0.194283
0.1941425
0.1908659
0.1910423
0.1910575
0.1908483
0.1904422
0.1898771
0.1891865
0.1884021
0.1875588
0.1866978
0.1858699
0.1851337
0.1845452
0.1841544
0.1839987
0.1840987
0.184456
0.1850525
0.1858533
0.1868097
0.1878659
0.1889646
0.1900521
0.1910811
0.1920098
0.1927986
0.1934048
0.1937799
0.1938839
0.1937666
0.1905684
0.1907141
0.1906705
0.1903736
0.1898487
0.1891316
0.1882549
0.187252
0.1861633
0.1850401
0.1839494
0.1829687
0.1821733
0.1816304
0.1813903
0.1814805
0.1819027
0.1826322
0.1836211
0.1848042
0.1861068
0.1874541
0.1887777
0.1900198
0.1911324
0.1920732
0.1927993
0.1932637
0.1934279
0.1933423
0.1902487
0.1903588
0.1902467
0.1898479
0.1891855
0.1882926
0.1871998
0.1859411
0.184562
0.1831245
0.1817162
0.1804376
0.1793884
0.1786578
0.1783135
0.1783923
0.1788964
0.1797921
0.1810145
0.1824761
0.1840786
0.1857252
0.1873303
0.1888242
0.1901525
0.1912706
0.1921363
0.1927045
0.1929389
0.1928901
0.1899203
0.189992
0.1898058
0.189296
0.1884828
0.1873958
0.1860627
0.1845166
0.1828072
0.1810084
0.1792319
0.1776043
0.1762535
0.1752964
0.1748238
0.1748884
0.1754937
0.1765931
0.1780971
0.1798896
0.1818435
0.1838364
0.1857633
0.187542
0.1891117
0.1904265
0.1914459
0.1921278
0.1924384
0.1924294
0.1895972
0.1896302
0.1893682
0.1887439
0.187774
0.1864833
0.1848957
0.1830424
0.1809751
0.1787814
0.1765972
0.1745738
0.172869
0.1716349
0.171
0.171045
0.1717772
0.1731284
0.1749689
0.1771445
0.1794946
0.1818701
0.1841471
0.1862317
0.1880581
0.1895801
0.19076
0.1915595
0.1919484
0.1919798
0.1892951
0.189291
0.1889559
0.1882204
0.1870967
0.1856047
0.1837631
0.1815998
0.1791677
0.176567
0.1739518
0.1714901
0.1693601
0.1677661
0.1669079
0.1669236
0.1678279
0.1695127
0.1717683
0.1743803
0.1771575
0.1799334
0.1825697
0.1849639
0.1870472
0.1887748
0.1901126
0.1910269
0.1914917
0.1915619
0.1890303
0.1889929
0.188592
0.1877555
0.1864914
0.1848142
0.1827371
0.1802838
0.1775067
0.1745145
0.171465
0.1685141
0.1658286
0.1637624
0.1626575
0.1626404
0.1637278
0.1658218
0.1686421
0.1717658
0.1749866
0.178154
0.1811325
0.1838174
0.1861397
0.1880568
0.1895391
0.190558
0.1910913
0.1911964
0.1888184
0.1887539
0.1882988
0.1873788
0.1859981
0.1841661
0.1818909
0.1791922
0.1761196
0.1727827
0.169321
0.1658292
0.1626421
0.1602705
0.1589875
0.1589452
0.1601641
0.1625285
0.1657862
0.1694929
0.1731478
0.1766665
0.1799402
0.1828719
0.1853953
0.1874712
0.1890739
0.1901794
0.1907692
0.1909029
0.1886738
0.1885897
0.1880959
0.1871162
0.1856516
0.183708
0.1812897
0.1784126
0.1751226
0.1715244
0.1677287
0.1637817
0.1602994
0.1577053
0.1562954
0.1562352
0.1575477
0.1601077
0.1636481
0.1677786
0.1718025
0.1755944
0.1790869
0.1821983
0.1848672
0.1870574
0.1887466
0.1899141
0.1905442
0.190698
0.1886062
0.188512
0.1879979
0.1869867
0.1854779
0.1834757
0.1809819
0.1780103
0.174604
0.1708616
0.1668709
0.1627046
0.1590622
0.1563506
0.1548737
0.1548042
0.1561662
0.1588297
0.16252
0.1668473
0.171092
0.1750344
0.1786434
0.1818496
0.1845948
0.1868451
0.1885797
0.1897796
0.1904307
0.1905949
0.1886211
0.1885267
0.1880122
0.1870005
0.185491
0.1834879
0.1809931
0.1780203
0.1746129
0.1708693
0.1668775
0.1627101
0.1590669
0.1563545
0.1548771
0.1548073
0.156169
0.1588325
0.1625228
0.1668502
0.1710952
0.1750378
0.1786472
0.1818537
0.1845993
0.1868499
0.1885847
0.1897847
0.1904359
0.1906001
0.1887183
0.1886337
0.1881388
0.1871575
0.1856907
0.1837445
0.1813232
0.1784428
0.1751493
0.1715477
0.1677486
0.1637984
0.1603134
0.1577171
0.1563057
0.1562444
0.1575562
0.160116
0.1636565
0.1677875
0.171812
0.1756048
0.1790982
0.1822107
0.1848805
0.1870716
0.1887616
0.1899295
0.1905597
0.1907133
0.1888922
0.1888267
0.1883699
0.1874473
0.1860629
0.1842266
0.1819465
0.1792423
0.1761641
0.1728216
0.1693544
0.1658573
0.1626658
0.1602906
0.1590049
0.1589607
0.1601784
0.1625424
0.1658003
0.1695077
0.1731636
0.1766837
0.179959
0.1828924
0.1854173
0.1874946
0.1890985
0.1902047
0.1907947
0.190928
0.1891323
0.1890939
0.1886907
0.1878506
0.1865816
0.1848983
0.1828143
0.1803536
0.1775688
0.1745689
0.171512
0.1685542
0.1658624
0.1637912
0.1626824
0.1626625
0.1637482
0.1658416
0.1686619
0.1717864
0.1750085
0.1781779
0.1811586
0.1838458
0.1861703
0.1880894
0.1895734
0.1905933
0.1911271
0.191232
0.189425
0.1894196
0.1890816
0.1883414
0.1872115
0.1857119
0.1838616
0.1816889
0.1792471
0.1766367
0.1740122
0.171542
0.1694043
0.1678038
0.1669406
0.1669526
0.1678545
0.1695382
0.1717937
0.1744065
0.1771855
0.1799637
0.1826029
0.1850001
0.1870863
0.1888166
0.1901565
0.1910724
0.1915379
0.1916083
0.1897541
0.1897855
0.1895199
0.18889
0.1879125
0.1866127
0.1850148
0.1831502
0.1810714
0.178866
0.1766707
0.1746371
0.1729233
0.1716815
0.1710405
0.1710809
0.17181
0.1731595
0.1749997
0.1771763
0.1795284
0.1819067
0.1841871
0.1862753
0.1881052
0.1896305
0.1908132
0.1916147
0.1920049
0.1920367
0.190103
0.1901728
0.1899823
0.1894659
0.188644
0.1875464
0.1862013
0.1846424
0.1829196
0.1811075
0.1793182
0.1776788
0.1763175
0.1753514
0.1748716
0.1749307
0.1755323
0.1766296
0.1781332
0.1799267
0.1818829
0.1838791
0.1858099
0.1875927
0.1891666
0.1904853
0.191508
0.1921924
0.1925047
0.1924963
0.190456
0.1905637
0.1904467
0.1900403
0.189368
0.1884631
0.1873568
0.1860837
0.1846896
0.1832372
0.1818146
0.1805228
0.1794617
0.178721
0.1783683
0.1784409
0.1789406
0.1798339
0.1810557
0.1825184
0.1841234
0.1857736
0.187383
0.1888817
0.1902147
0.1913373
0.192207
0.1927783
0.1930147
0.1929667
0.1907985
0.1909415
0.1908923
0.1905868
0.1900508
0.1893204
0.1884288
0.1874099
0.1863049
0.1851654
0.184059
0.1830637
0.1822553
0.1817012
0.1814518
0.181535
0.1819522
0.1826789
0.1836671
0.1848513
0.1861565
0.1875077
0.188836
0.1900834
0.1912015
0.1921475
0.1928782
0.1933462
0.1935127
0.1934281
0.1911169
0.1912903
0.1912991
0.1910804
0.190662
0.1900822
0.1893754
0.1885737
0.1877127
0.1868341
0.1859895
0.1852375
0.184635
0.184232
0.1840662
0.1841585
0.1845103
0.1851037
0.1859035
0.1868609
0.1879199
0.1890228
0.1901156
0.1911504
0.1920852
0.1928799
0.1934912
0.1938704
0.1939771
0.193861
0.1913965
0.1915919
0.1916447
0.1914942
0.1911711
0.1907154
0.1901611
0.1895377
0.188875
0.1882061
0.1875699
0.1870105
0.18657
0.1862857
0.1861857
0.1862857
0.1865871
0.187077
0.1877295
0.1885086
0.1893723
0.1902767
0.1911795
0.1920418
0.1928271
0.1934984
0.1940134
0.1943226
0.1943836
0.1942445
0.1916187
0.1918227
0.1918995
0.191795
0.1915431
0.191184
0.19075
0.1902668
0.1897587
0.1892516
0.188775
0.1883619
0.1880441
0.1878494
0.1877991
0.1879051
0.188169
0.1885812
0.1891228
0.1897669
0.1904816
0.1912335
0.1919892
0.192717
0.1933858
0.1939622
0.1944057
0.1946672
0.1947023
0.1945535
0.191758
0.1919496
0.1920243
0.1919413
0.1917363
0.1914474
0.1911027
0.1907237
0.1903295
0.1899405
0.1895794
0.1892716
0.1890416
0.1889108
0.1888959
0.1890063
0.1892434
0.1896003
0.1900624
0.1906091
0.191216
0.1918565
0.192504
0.1931325
0.1937156
0.1942238
0.1946206
0.1948591
0.194894
0.1947562
0.1917857
0.1919367
0.1919816
0.1918972
0.1917175
0.191474
0.1911893
0.1908802
0.1905621
0.1902511
0.1899657
0.1897266
0.1895534
0.1894639
0.1894717
0.1895846
0.1898041
0.1901247
0.1905347
0.1910176
0.1915532
0.1921195
0.1926945
0.1932559
0.1937812
0.1942455
0.1946174
0.1948561
0.1949186