/*--------------------------------*- C++ -*----------------------------------*\
| =========                 |                                                 |
| \\      /  F ield         | OpenFOAM: The Open Source CFD Toolbox           |
|  \\    /   O peration     | Version:  2506                                  |
|   \\  /    A nd           | Website:  www.openfoam.com                      |
|    \\/     M anipulation  |                                                 |
\*---------------------------------------------------------------------------*/
FoamFile
{
    version     2.0;
    format      ascii;
    arch        "LSB;label=32;scalar=64";
    class       volScalarField;
    location    "2000/air";
    object      epsilon;
}
// * * * * * * * * * * * * * * * * * * * * * * * * * * * * * * * * * * * * * //

dimensions      [0 2 -3 0 0 0 0];

internalField   nonuniform List<scalar> 
33752
(
0.03628839
0.03587997
0.03552126
0.03524654
0.0350259
0.03484094
0.03468124
0.03454061
0.034416
0.03430682
0.034216
0.03414596
0.03410011
0.03408195
0.03409438
0.03413926
0.03421715
0.03432717
0.03446717
0.03463402
0.0348241
0.03503389
0.03526055
0.03550259
0.03576072
0.03603883
0.03634552
0.03669854
0.03713025
0.03760592
0.03587022
0.03522563
0.03473906
0.03440344
0.03415369
0.03395479
0.03378779
0.0336423
0.03351337
0.03340011
0.03330516
0.03323065
0.03318031
0.03315795
0.03316679
0.03320887
0.03328478
0.03339357
0.03353284
0.03369919
0.03388876
0.03409795
0.03432423
0.03456707
0.03482939
0.03511969
0.03545564
0.03587198
0.03643556
0.03715019
0.03550492
0.03472974
0.03412726
0.03371496
0.0334167
0.03318595
0.03299585
0.03283141
0.03268525
0.03255553
0.03244501
0.03235606
0.03229305
0.03226056
0.03226243
0.03230113
0.03237736
0.03248992
0.0326359
0.03281125
0.03301149
0.03323266
0.03347243
0.03373137
0.0340149
0.03433621
0.0347206
0.03521354
0.03589187
0.03673563
0.03521989
0.0343815
0.0337006
0.03322166
0.03287124
0.03259961
0.0323756
0.03218087
0.032006
0.03184855
0.03171184
0.03159896
0.03151546
0.03146716
0.03145902
0.0314942
0.03157357
0.03169555
0.03185637
0.03205082
0.03227327
0.03251888
0.03278505
0.03307296
0.03338971
0.03375136
0.03418674
0.03474398
0.03549794
0.03640333
0.03498441
0.03411566
0.03338451
0.03285216
0.03245095
0.03213304
0.03186648
0.03163125
0.03141658
0.0312201
0.03104617
0.03089917
0.03078648
0.0307159
0.03069407
0.03072526
0.03081063
0.03094803
0.03113237
0.03135661
0.03161319
0.03189567
0.03220043
0.03252845
0.03288733
0.03329402
0.03377774
0.03438526
0.03518697
0.03612126
0.03478061
0.03389759
0.03313355
0.03255887
0.03211031
0.03174323
0.03142718
0.03114226
0.03087708
0.03063045
0.03040798
0.03021603
0.03006463
0.02996441
0.0299245
0.02995081
0.03004502
0.0302042
0.03042134
0.03068669
0.03098975
0.03132148
0.03167631
0.03205401
0.03246154
0.03291533
0.03344355
0.03409076
0.03492357
0.03587073
0.0345988
0.03370885
0.03292152
0.032312
0.03181952
0.0314019
0.03103083
0.03068793
0.03036206
0.03005481
0.02977271
0.02952475
0.02932452
0.02918648
0.0291232
0.02914308
0.0292487
0.02943621
0.0296959
0.03001418
0.03037636
0.03076957
0.03118519
0.03162084
0.03208205
0.03258415
0.03315403
0.03383442
0.03468939
0.03564219
0.03443361
0.03353971
0.032734
0.03209406
0.03156022
0.03109152
0.03066131
0.03025336
0.02985786
0.02948137
0.02912964
0.02881504
0.02855562
0.02837078
0.02827717
0.02828808
0.02840768
0.02863026
0.02894205
0.02932493
0.02975854
0.03022474
0.03071081
0.0312115
0.03173056
0.03228221
0.03289234
0.0336025
0.03447532
0.03543095
0.03428273
0.03338586
0.03256422
0.03189643
0.03132302
0.03080338
0.03031165
0.0298334
0.02936326
0.02891089
0.02847954
0.02808457
0.02775163
0.0275083
0.02737965
0.02738068
0.02751638
0.02778028
0.02815524
0.02861559
0.02913329
0.02968256
0.03024712
0.03081855
0.0313988
0.03200117
0.03265102
0.03338931
0.03427809
0.03523583
0.03414613
0.03324646
0.03241025
0.03171644
0.0311052
0.03053569
0.02998223
0.02943139
0.02888596
0.02834983
0.02782804
0.02734404
0.02692907
0.02661992
0.02644961
0.02644053
0.02659902
0.02691349
0.02735823
0.02790008
0.02850638
0.0291475
0.0297971
0.03044309
0.03108643
0.03173995
0.03242891
0.03319428
0.03409815
0.03505815
0.03402524
0.03312284
0.03227328
0.03155544
0.03090883
0.03029199
0.02967922
0.02905769
0.0284368
0.0278145
0.02719629
0.02661085
0.02610203
0.02573448
0.02554617
0.02553029
0.0256931
0.02604021
0.02656666
0.02720299
0.02790461
0.02863683
0.02937175
0.03009336
0.03079929
0.03150265
0.03222912
0.03302015
0.03393835
0.03490102
0.03392221
0.03301771
0.0321564
0.0314173
0.03073913
0.03007967
0.02941303
0.02872684
0.02803543
0.02732591
0.02660844
0.02591996
0.02538601
0.02499959
0.02478108
0.02475639
0.02493378
0.02530002
0.02582856
0.02655134
0.02735104
0.02817493
0.02899177
0.02978329
0.03054761
0.03129683
0.03205744
0.03287171
0.03380299
0.03476864
0.03384228
0.03293475
0.03206362
0.0313071
0.03060298
0.02990819
0.02919658
0.02845637
0.02770216
0.0269142
0.02610717
0.02539254
0.02481386
0.02437715
0.024126
0.02409198
0.02428514
0.02469019
0.02526916
0.02599131
0.02688072
0.02778837
0.02867812
0.02953062
0.03034403
0.03113184
0.03192102
0.0327547
0.03369708
0.0346658
0.03378525
0.03287671
0.03199879
0.03122991
0.03050728
0.02978714
0.02904303
0.02826297
0.02746144
0.02661384
0.02574737
0.02502132
0.02439524
0.02391822
0.02364106
0.02359884
0.02380335
0.02423866
0.02486084
0.02561087
0.02653223
0.02750703
0.02845291
0.0293512
0.03020124
0.03101714
0.03182732
0.03267515
0.03362579
0.03459751
0.03375609
0.03284663
0.03196514
0.03118984
0.03045757
0.0297242
0.02896241
0.02816191
0.02733429
0.02645402
0.02557446
0.02482431
0.02417152
0.02367228
0.02338041
0.02333301
0.02354302
0.02399483
0.02463988
0.02541113
0.02634189
0.02735756
0.0283348
0.02925779
0.03012735
0.03095805
0.03177914
0.03263442
0.03358954
0.03456313
0.03375569
0.03284628
0.03196479
0.03118947
0.03045717
0.02972378
0.02896195
0.02816144
0.02733379
0.02645351
0.02557393
0.02482378
0.02417101
0.02367181
0.02338
0.02333269
0.02354282
0.02399477
0.02463999
0.02541143
0.02634233
0.02735806
0.0283354
0.02925851
0.03012823
0.03095906
0.03178031
0.03263579
0.03359115
0.03456508
0.03378399
0.03287568
0.03199778
0.03122884
0.03050611
0.0297859
0.02904171
0.02826159
0.02746003
0.02661236
0.02574585
0.02501983
0.02439383
0.02391692
0.02363993
0.02359797
0.02380282
0.02423854
0.02486115
0.02561162
0.02653338
0.02750848
0.02845469
0.02935341
0.03020396
0.03102032
0.03183104
0.03267946
0.03363086
0.03460373
0.03383978
0.03293317
0.03206211
0.03130547
0.03060119
0.02990626
0.02919454
0.02845423
0.02769995
0.0269119
0.02610469
0.02539026
0.02481174
0.02437525
0.0241244
0.0240908
0.02428448
0.02469013
0.02526974
0.02599251
0.02688256
0.02779072
0.02868105
0.02953445
0.03034908
0.03113781
0.03192819
0.03276289
0.0337065
0.03467725
0.03392153
0.03301635
0.03215474
0.03141537
0.03073693
0.03007726
0.02941047
0.02872415
0.02803264
0.02732298
0.02660498
0.02591698
0.02538345
0.02499738
0.0247793
0.02475516
0.02493321
0.02530019
0.0258295
0.02655313
0.02735358
0.02817811
0.02899566
0.02978821
0.03055395
0.03130429
0.03206629
0.03288177
0.03381443
0.03478222
0.03402419
0.03312156
0.03227168
0.03155347
0.03090649
0.03028935
0.02967637
0.0290547
0.02843371
0.02781138
0.02719314
0.02660791
0.02609934
0.02573218
0.02554442
0.02552919
0.02569275
0.02604072
0.02656814
0.02720539
0.02790781
0.02864074
0.02937638
0.03009893
0.03080592
0.03151032
0.03223789
0.03303005
0.03394948
0.03491361
0.03414538
0.03324558
0.03240902
0.03171475
0.03110304
0.0305331
0.02997934
0.0294283
0.02888275
0.02834666
0.02782497
0.02734122
0.0269266
0.02661789
0.02644814
0.02643977
0.02659911
0.02691453
0.02736025
0.02790302
0.02851014
0.02915203
0.0298025
0.03044946
0.03109386
0.03174846
0.0324385
0.03320496
0.03410994
0.03507105
0.03428271
0.03338573
0.03256369
0.03189534
0.03132135
0.03080116
0.03030899
0.02983044
0.02936012
0.02890776
0.02847659
0.02808192
0.02774938
0.02750656
0.02737854
0.02738033
0.0275169
0.02778172
0.02815762
0.02861888
0.02913747
0.02968768
0.03025326
0.0308258
0.03140721
0.03201074
0.03266171
0.03340107
0.03429086
0.03524955
0.03443466
0.03354065
0.03273449
0.03209391
0.03155935
0.03108995
0.03065914
0.03025074
0.02985496
0.02947839
0.02912677
0.02881246
0.02855347
0.02836919
0.02827625
0.02828792
0.02840839
0.02863189
0.02894463
0.02932848
0.0297631
0.03023041
0.03071768
0.03121964
0.03173999
0.03229289
0.03290421
0.03361543
0.03448903
0.0354456
0.03460121
0.03371114
0.03292331
0.03231305
0.03181972
0.03140124
0.0310294
0.03068585
0.03035953
0.03005207
0.02976997
0.02952222
0.02932238
0.02918488
0.02912226
0.02914291
0.0292494
0.02943784
0.02969855
0.03001791
0.03038127
0.03077577
0.03119277
0.03162985
0.03209247
0.03259594
0.0331671
0.03384867
0.03470469
0.03565844
0.03478458
0.03390143
0.03313682
0.0325613
0.03211175
0.03174366
0.03142665
0.0311409
0.03087509
0.03062806
0.03040546
0.03021359
0.03006249
0.02996276
0.02992347
0.02995055
0.03004564
0.03020583
0.03042408
0.03069065
0.03099505
0.03132824
0.0316846
0.03206385
0.03247291
0.03292817
0.03345778
0.03410629
0.03494028
0.03588847
0.03499003
0.03412113
0.03338934
0.03285604
0.03245371
0.03213463
0.03186695
0.03163072
0.03141525
0.03121821
0.03104398
0.03089694
0.03078444
0.03071427
0.03069303
0.03072498
0.03081127
0.03094973
0.03113528
0.03136087
0.03161892
0.03190298
0.03220939
0.03253907
0.03289959
0.03330786
0.03379306
0.03440196
0.03520496
0.03614034
0.03522715
0.03438857
0.03370694
0.03322693
0.03287526
0.03260231
0.03237704
0.03218117
0.03200536
0.03184721
0.03171008
0.03159704
0.03151364
0.03146568
0.03145809
0.03149403
0.03157434
0.03169743
0.03185954
0.03205544
0.03227946
0.03252675
0.03279466
0.03308433
0.03340281
0.03376613
0.03420309
0.03476178
0.03551709
0.03642363
0.03551365
0.03473822
0.0341349
0.0337214
0.03342176
0.03318957
0.03299811
0.03283243
0.03268523
0.03255471
0.03244368
0.03235449
0.03229152
0.03225931
0.03226171
0.03230117
0.03237836
0.03249208
0.0326394
0.03281626
0.03301815
0.03324108
0.03348267
0.03374346
0.03402882
0.03435188
0.03473792
0.03523237
0.03591207
0.03675699
0.0358801
0.03523513
0.0347476
0.03441066
0.03415943
0.03395903
0.03379058
0.0336438
0.03351379
0.03339968
0.03330418
0.03322939
0.03317905
0.03315696
0.03316631
0.03320916
0.03328606
0.03339604
0.0335367
0.03370462
0.03389591
0.03410694
0.03433513
0.03457991
0.03484414
0.03513628
0.03547393
0.0358918
0.03645673
0.03717249
0.03629887
0.0358899
0.03553009
0.03525399
0.03503182
0.03484533
0.03468418
0.03454225
0.03441656
0.03430654
0.03421517
0.03414485
0.03409902
0.03408114
0.0340941
0.03413977
0.03421868
0.03432994
0.03447138
0.03463986
0.03483172
0.03504342
0.03527206
0.03551613
0.03577626
0.03605627
0.03636472
0.03671928
0.03715228
0.0376289
0.01291645
0.01286118
0.01280319
0.01275109
0.01270407
0.01266091
0.01262089
0.01258378
0.01254977
0.01251948
0.01249406
0.01247457
0.01246215
0.01245791
0.01246272
0.01247712
0.01250123
0.01253472
0.01257684
0.01262649
0.01268238
0.0127431
0.01280732
0.01287386
0.01294183
0.01301069
0.01308036
0.01315129
0.01322367
0.01328777
0.01286147
0.01276856
0.01268315
0.01261533
0.0125597
0.01251171
0.01246873
0.01242949
0.01239368
0.01236172
0.01233472
0.01231371
0.0122999
0.01229447
0.01229837
0.01231219
0.01233604
0.01236958
0.01241199
0.01246211
0.01251859
0.01258
0.0126451
0.01271294
0.01278317
0.01285631
0.01293423
0.01302084
0.01312095
0.01322337
0.0128025
0.01268213
0.0125691
0.01248128
0.01241217
0.0123549
0.01230502
0.01226015
0.01221933
0.01218272
0.0121514
0.01212648
0.0121093
0.01210122
0.01210334
0.01211636
0.01214043
0.01217513
0.01221953
0.01227231
0.01233196
0.01239699
0.01246619
0.01253891
0.01261543
0.01269738
0.01278845
0.01289484
0.01302253
0.0131527
0.01274761
0.01261152
0.01247841
0.0123728
0.01228938
0.01222061
0.0121611
0.01210766
0.01205887
0.01201467
0.01197629
0.01194499
0.01192239
0.01191014
0.01190964
0.01192174
0.01194665
0.01198386
0.01203222
0.01209013
0.01215578
0.01222748
0.01230397
0.01238473
0.01247046
0.01256352
0.01266849
0.01279224
0.01293977
0.01308576
0.01269605
0.01255142
0.01240477
0.01228476
0.01218769
0.01210637
0.01203521
0.01197069
0.01191113
0.01185646
0.0118082
0.01176791
0.01173766
0.01171958
0.01171547
0.01172649
0.01175292
0.0117941
0.01184856
0.01191425
0.01198887
0.01207033
0.0121571
0.01224862
0.01234567
0.01245089
0.01256901
0.01270668
0.0128675
0.01302199
0.01264688
0.01249757
0.01234166
0.01221008
0.01210036
0.01200598
0.01192163
0.01184381
0.01177084
0.01170286
0.01164185
0.01158983
0.0115495
0.01152371
0.01151487
0.01152456
0.01155319
0.01159992
0.01166278
0.01173905
0.01182571
0.01192
0.01201989
0.0121245
0.01223447
0.01235231
0.01248259
0.01263145
0.01280135
0.01296044
0.01259967
0.01244761
0.01228496
0.01214374
0.01202228
0.01191461
0.01181583
0.01172276
0.01163392
0.01154994
0.01147336
0.01140677
0.01135377
0.01131818
0.01130328
0.01131126
0.01134276
0.01139668
0.01147036
0.01156015
0.01166198
0.01177213
0.0118878
0.01200756
0.0121317
0.01226249
0.01240418
0.01256245
0.01273901
0.01290076
0.01255446
0.01240055
0.01223253
0.01208289
0.01195036
0.0118293
0.01171517
0.01160521
0.01149834
0.01139605
0.01130119
0.01121717
0.01114878
0.01110112
0.01107864
0.01108444
0.01111946
0.01118222
0.01126919
0.01137544
0.01149552
0.0116244
0.01175825
0.01189495
0.01203434
0.01217835
0.01233102
0.0124977
0.01267966
0.01284319
0.01251162
0.01235626
0.01218363
0.01202635
0.01188325
0.01174885
0.01161885
0.01149085
0.01136444
0.01124189
0.01112619
0.01102174
0.01093499
0.01087295
0.0108417
0.01084503
0.0108841
0.0109572
0.01105985
0.01118541
0.0113266
0.01147674
0.01163082
0.0117859
0.01194133
0.01209882
0.01226223
0.01243675
0.01262346
0.01278841
0.01247188
0.01231525
0.01213847
0.01197412
0.01182098
0.01167358
0.01152767
0.01138117
0.01123447
0.01109005
0.01095126
0.0108242
0.01071739
0.01064026
0.01060026
0.01060114
0.01064428
0.01072803
0.01084764
0.01099405
0.01115808
0.01133134
0.0115071
0.01168145
0.01185335
0.01202433
0.01219821
0.01238017
0.01257128
0.01273753
0.01243617
0.0122784
0.01209788
0.01192707
0.01176462
0.01160493
0.01144374
0.01127916
0.01111211
0.01094528
0.01078236
0.01063188
0.0105074
0.01042275
0.01038322
0.010383
0.01042307
0.01050762
0.01064103
0.01080841
0.01099621
0.01119299
0.01139065
0.01158433
0.01177245
0.01195648
0.01214031
0.01232923
0.01252441
0.01269193
0.01240558
0.01224682
0.01206306
0.01188659
0.01171588
0.01154517
0.01137013
0.01118891
0.0110027
0.01081418
0.01062853
0.0104607
0.01034071
0.01025543
0.01020974
0.01020747
0.01025023
0.01033635
0.01046105
0.01063945
0.01084873
0.01106822
0.01128675
0.0114985
0.01170165
0.01189761
0.01209042
0.01228558
0.01248442
0.01265313
0.01238143
0.01222176
0.01203533
0.01185425
0.0116768
0.01149699
0.01131039
0.01111507
0.01091247
0.01070532
0.0105028
0.01033925
0.01021151
0.01011826
0.01006638
0.01006205
0.01010742
0.01019958
0.01033215
0.01050154
0.01072582
0.01096459
0.0112013
0.01142861
0.01164445
0.01185041
0.0120507
0.01225102
0.01245292
0.01262269
0.01236444
0.01220423
0.01201594
0.0118316
0.01164934
0.01146302
0.01126806
0.01106239
0.01084774
0.01062729
0.01041609
0.01025413
0.01011922
0.01001845
0.009961261
0.009955133
0.01000265
0.01010038
0.01024008
0.01041404
0.01063793
0.01089001
0.01114021
0.01137904
0.01160423
0.01181745
0.01202315
0.0122272
0.01243133
0.01260199
0.01235565
0.01219513
0.01200587
0.01181984
0.01163507
0.01144533
0.01124594
0.01103485
0.01081382
0.01058688
0.01037668
0.01021014
0.01007044
0.00996523
0.009904951
0.009897728
0.009946421
0.01004738
0.01019135
0.01036949
0.01059143
0.01085076
0.0111083
0.01135333
0.01158349
0.01180055
0.01200909
0.01221511
0.01242045
0.0125916
0.0123555
0.01219499
0.01200572
0.01181968
0.0116349
0.01144516
0.01124576
0.01103466
0.01081362
0.01058668
0.01037649
0.01020996
0.01007027
0.009965081
0.009904827
0.009897636
0.009946369
0.01004737
0.01019139
0.01036957
0.01059155
0.01085091
0.01110849
0.01135356
0.01158376
0.01180085
0.01200944
0.0122155
0.01242089
0.0125921
0.012364
0.01220381
0.01201551
0.01183115
0.01164886
0.01146251
0.01126753
0.01106184
0.01084718
0.01062672
0.01041554
0.01025361
0.01011874
0.01001803
0.009960912
0.009954879
0.01000251
0.01010036
0.01024019
0.01041427
0.01063828
0.01089046
0.01114076
0.01137972
0.01160503
0.01181837
0.0120242
0.01222838
0.01243269
0.01260353
0.01238072
0.01222112
0.01203468
0.01185356
0.01167605
0.0114962
0.01130956
0.0111142
0.01091158
0.01070442
0.01050191
0.01033844
0.01021077
0.01011761
0.01006586
0.01006168
0.01010722
0.01019957
0.01033234
0.01050191
0.01072638
0.01096533
0.01120222
0.01142973
0.0116458
0.01185198
0.01205249
0.01225304
0.0124552
0.01262531
0.01240495
0.01224612
0.01206228
0.01188573
0.01171494
0.01154416
0.01136906
0.01118779
0.01100156
0.01081302
0.01062735
0.01045961
0.01033977
0.01025463
0.01020911
0.01020703
0.01025002
0.01033638
0.01046132
0.01063998
0.0108495
0.01106922
0.01128799
0.01149999
0.01170343
0.01189966
0.01209275
0.01228819
0.01248734
0.01265641
0.01243549
0.01227766
0.01209705
0.01192613
0.01176357
0.01160377
0.01144251
0.01127788
0.0111108
0.01094397
0.01078107
0.01063068
0.01050631
0.01042184
0.01038252
0.01038253
0.01042286
0.0105077
0.01064141
0.01080911
0.01099719
0.01119424
0.01139216
0.01158612
0.01177453
0.01195886
0.01214297
0.01233218
0.01252765
0.01269544
0.01247125
0.01231457
0.01213768
0.01197319
0.01181991
0.01167238
0.01152637
0.0113798
0.01123306
0.01108865
0.01094991
0.01082294
0.01071627
0.01063932
0.01059954
0.01060069
0.01064413
0.01072821
0.01084815
0.0109949
0.01115925
0.01133281
0.01150887
0.01168355
0.01185576
0.01202706
0.01220124
0.01238349
0.01257488
0.01274135
0.01251116
0.01235575
0.01218299
0.01202554
0.01188226
0.01174771
0.01161756
0.01148948
0.01136301
0.01124046
0.01112482
0.01102046
0.01093387
0.01087202
0.01084101
0.01084463
0.01088403
0.01095747
0.01106047
0.01118638
0.01132792
0.01147841
0.01163284
0.01178828
0.01194407
0.01210191
0.01226565
0.01244047
0.01262745
0.0127926
0.01255427
0.0124003
0.01223213
0.01208231
0.01194956
0.01182829
0.01171399
0.0116039
0.01149695
0.01139464
0.01129982
0.01121591
0.01114767
0.01110021
0.01107799
0.01108408
0.01111943
0.01118255
0.01126989
0.01137652
0.01149698
0.01162625
0.01176051
0.01189763
0.01203741
0.01218181
0.01233483
0.01250182
0.01268404
0.01284777
0.01259985
0.01244772
0.0122849
0.01214346
0.01202175
0.01191383
0.01181483
0.01172157
0.01163261
0.01154858
0.01147202
0.01140552
0.01135266
0.01131727
0.01130263
0.01131091
0.01134275
0.01139703
0.01147111
0.01156131
0.01166357
0.01177416
0.01189028
0.0120105
0.01213509
0.01226629
0.01240837
0.01256698
0.01274384
0.01290579
0.01264748
0.01249809
0.012342
0.01221016
0.01210015
0.01200548
0.01192086
0.01184281
0.01176967
0.0117016
0.01164058
0.01158861
0.01154841
0.01152281
0.01151422
0.01152421
0.01155319
0.0116003
0.01166357
0.01174029
0.01182742
0.0119222
0.0120226
0.0121277
0.01223815
0.01235645
0.01248715
0.01263637
0.01280659
0.0129659
0.01269711
0.01255239
0.01240554
0.01228524
0.01218784
0.01210618
0.01203471
0.01196991
0.01191014
0.01185533
0.01180702
0.01176676
0.01173661
0.0117187
0.01171484
0.01172616
0.01175294
0.01179452
0.01184942
0.01191558
0.01199071
0.0120727
0.01216001
0.01225206
0.01234963
0.01245533
0.0125739
0.01271196
0.01287312
0.01302785
0.01274913
0.01261294
0.01247959
0.01237367
0.01228988
0.01222073
0.01216086
0.01210711
0.01205806
0.01201369
0.01197523
0.01194392
0.0119214
0.01190932
0.01190904
0.01192145
0.01194671
0.01198433
0.01203315
0.01209156
0.01215775
0.01223001
0.01230706
0.01238839
0.01247467
0.01256825
0.01267369
0.01279785
0.01294574
0.01309197
0.01280444
0.01268395
0.01257066
0.01248248
0.01241297
0.01235529
0.01230502
0.0122598
0.0122187
0.01218188
0.01215045
0.01212551
0.01210839
0.01210046
0.0121028
0.01211612
0.01214055
0.01217568
0.01222056
0.01227386
0.01233406
0.01239967
0.01246947
0.01254279
0.01261987
0.01270237
0.01279393
0.01290075
0.0130288
0.01315922
0.01286374
0.01277068
0.01268498
0.01261677
0.01256072
0.01251229
0.0124689
0.01242929
0.01239318
0.012361
0.01233387
0.01231282
0.01229907
0.01229378
0.0122979
0.01231201
0.01233624
0.01237021
0.0124131
0.01246376
0.01252081
0.01258283
0.01264855
0.01271701
0.01278784
0.01286154
0.01293997
0.01302701
0.01312748
0.01323013
0.0129189
0.01286346
0.01280514
0.01275264
0.01270518
0.01266157
0.01262113
0.01258365
0.01254934
0.01251881
0.01249326
0.01247373
0.01246137
0.01245726
0.01246229
0.012477
0.01250148
0.01253541
0.01257803
0.01262823
0.01268471
0.01274605
0.01281091
0.01287809
0.01294667
0.01301611
0.0130863
0.01315767
0.01323039
0.01329471
0.008378225
0.008363381
0.008344528
0.008325162
0.008306179
0.00828786
0.008270381
0.00825396
0.008238923
0.008225702
0.008214872
0.008206975
0.008202541
0.008202048
0.008205869
0.008214215
0.008227102
0.008244342
0.008265554
0.008290193
0.0083176
0.008347051
0.008377804
0.008409146
0.008440416
0.008471022
0.008500405
0.008527925
0.008552408
0.008570187
0.008363309
0.008340821
0.008314444
0.008289669
0.008267144
0.008246524
0.008227476
0.008209895
0.008193918
0.008179882
0.008168325
0.008159778
0.008154779
0.00815383
0.008157324
0.008165486
0.008178339
0.008195687
0.008217131
0.00824211
0.008269953
0.008299942
0.008331381
0.008363653
0.008396291
0.008429031
0.008461831
0.008494698
0.008526731
0.008552267
0.008343746
0.008313765
0.00827831
0.00824592
0.008217702
0.008192908
0.008170704
0.008150597
0.00813247
0.00811653
0.00810327
0.008093221
0.00808695
0.008085009
0.008087842
0.008095711
0.008108649
0.008126446
0.008148664
0.008174698
0.00820384
0.008235369
0.008268638
0.008303164
0.008338725
0.008375445
0.00841379
0.008454185
0.008495303
0.008528423
0.008322756
0.00828742
0.00824437
0.008204638
0.008170188
0.008140286
0.008113839
0.008090076
0.008068683
0.008049759
0.008033788
0.008021335
0.008013037
0.008009539
0.008011375
0.008018872
0.008032084
0.008050771
0.00807443
0.008102366
0.008133793
0.008167943
0.008204183
0.00824212
0.008281716
0.008323358
0.008367768
0.008415388
0.00846408
0.008502618
0.008301201
0.00826239
0.008213685
0.008167731
0.008127317
0.008091969
0.008060572
0.008032246
0.008006571
0.00798361
0.007963896
0.007948082
0.00793693
0.007931243
0.007931705
0.007938748
0.007952459
0.007972552
0.007998412
0.008029195
0.008063965
0.008101839
0.008142122
0.008184432
0.008228801
0.008275711
0.008325914
0.008379635
0.008433955
0.008476
0.008279447
0.008238411
0.008185595
0.008134556
0.008088698
0.008047859
0.008011053
0.007977421
0.007946545
0.00791853
0.007894029
0.007873839
0.007858929
0.007850341
0.00784899
0.007855471
0.007869924
0.007891994
0.007920893
0.007955543
0.007994761
0.008037454
0.008082776
0.008130258
0.008179895
0.008232136
0.008287635
0.008346346
0.008404763
0.008449048
0.008257786
0.008215271
0.008159389
0.008104159
0.008053369
0.008007119
0.007964596
0.007925052
0.007888152
0.007854123
0.007823799
0.007798176
0.007778522
0.007766235
0.007762562
0.007768338
0.007783783
0.007808445
0.007841282
0.007880871
0.007925669
0.007974255
0.008025536
0.008078868
0.00813413
0.008191672
0.008252011
0.008314869
0.00837636
0.008422133
0.008236555
0.008192985
0.008134699
0.008075911
0.008020612
0.007969077
0.007920644
0.00787471
0.007831081
0.007790174
0.007753017
0.007720875
0.007695438
0.007678598
0.007672053
0.007676958
0.007693641
0.007721517
0.007759213
0.007804835
0.007856333
0.00791184
0.007969913
0.008029673
0.008090837
0.00815364
0.008218477
0.008284914
0.00834885
0.008395693
0.008216171
0.008171783
0.008111508
0.008049607
0.007990145
0.007933485
0.007879069
0.007826429
0.007775542
0.007727008
0.007682074
0.007642354
0.007610138
0.007587978
0.00757813
0.007582045
0.007600152
0.007631756
0.007675132
0.007727786
0.007787011
0.007850351
0.007915927
0.007982574
0.00804984
0.008117859
0.008186946
0.008256586
0.008322588
0.008370276
0.008197126
0.00815206
0.008090078
0.008025405
0.0079621
0.007900543
0.007840222
0.007780766
0.007722312
0.007665585
0.007612128
0.007564117
0.007524673
0.007497092
0.00748401
0.00748693
0.007506349
0.007541624
0.007590948
0.007651186
0.007718822
0.007790656
0.007864232
0.007938047
0.008011489
0.008084621
0.008157736
0.008230302
0.008298126
0.008346535
0.008179966
0.008134323
0.008070862
0.008003733
0.00793694
0.007870827
0.00780488
0.007738766
0.007672718
0.007607642
0.007545447
0.007489319
0.007443799
0.007412621
0.007397831
0.007399976
0.007419528
0.007456544
0.007510409
0.007577788
0.007653944
0.007734458
0.007816147
0.00789712
0.007976595
0.008054608
0.008131472
0.008206701
0.00827615
0.008325198
0.008165264
0.008119138
0.008054424
0.007985187
0.007915351
0.007845192
0.007774155
0.007701897
0.00762869
0.007555693
0.007485607
0.007423647
0.007376839
0.007345951
0.007330343
0.00733181
0.007350989
0.007387125
0.007440339
0.007511904
0.007595456
0.007684168
0.007773576
0.007861269
0.00794632
0.008028765
0.008108974
0.008186543
0.008257411
0.008307022
0.008153596
0.008107076
0.00804136
0.007970432
0.007898128
0.007824644
0.00774936
0.007671889
0.007592557
0.007512915
0.007437097
0.007373864
0.00732661
0.007293033
0.007275469
0.007276161
0.007295918
0.007333745
0.007387761
0.007458654
0.00754718
0.007642687
0.007738751
0.007832224
0.007922004
0.008008155
0.00809113
0.008170617
0.008242645
0.008292728
0.008145411
0.008098626
0.008032214
0.007960097
0.007886044
0.00781018
0.00773182
0.007650531
0.007566715
0.007482394
0.007403282
0.007340799
0.007291084
0.007255006
0.007235601
0.00723562
0.007256034
0.00729558
0.007351622
0.007422238
0.007512834
0.007612988
0.007713944
0.007811695
0.00790495
0.007993795
0.008078763
0.008159625
0.008232491
0.008282928
0.008141107
0.008094184
0.008027413
0.007954682
0.00787972
0.00780261
0.007722628
0.007639327
0.007553155
0.007466521
0.007386295
0.00732353
0.007272382
0.007234804
0.007214305
0.007213933
0.007234753
0.007275359
0.007332669
0.007403957
0.007494936
0.007597457
0.007701033
0.00780108
0.00789619
0.007986462
0.008072482
0.008154071
0.008227384
0.008278016
0.008140897
0.008093977
0.008027207
0.007954478
0.007879517
0.00780241
0.007722432
0.007639136
0.007552971
0.007466346
0.007386132
0.00732338
0.007272247
0.007234687
0.007214209
0.00721386
0.007234706
0.007275339
0.007332676
0.007403988
0.007494991
0.007597533
0.007701127
0.007801193
0.007896319
0.007986608
0.008072646
0.008154253
0.008227585
0.008278233
0.00814479
0.008098012
0.008031606
0.007959493
0.007885445
0.007809589
0.00773124
0.007649968
0.007566173
0.007481878
0.0074028
0.007340359
0.00729069
0.007254665
0.007235321
0.00723541
0.007255898
0.007295522
0.007351641
0.00742233
0.007512995
0.00761321
0.007714223
0.00781203
0.007905338
0.007994234
0.008079254
0.008160169
0.008233091
0.008283578
0.008152595
0.008106087
0.008040379
0.007969455
0.007897158
0.007823687
0.007748422
0.007670978
0.007591681
0.007512082
0.007436317
0.007373158
0.007325982
0.007292494
0.007275029
0.007275833
0.007295709
0.007333659
0.007387796
0.007458807
0.007547443
0.007643051
0.007739208
0.007832772
0.007922642
0.008008878
0.008091938
0.008171509
0.008243626
0.00829379
0.008163961
0.00811783
0.008053114
0.007983878
0.007914049
0.007843907
0.007772897
0.007700676
0.007627517
0.007554581
0.007484565
0.007422702
0.00737601
0.007345245
0.007329773
0.007331389
0.007350726
0.007387023
0.007440398
0.007512121
0.007595818
0.007684663
0.007774195
0.007862008
0.007947178
0.008029734
0.008110052
0.008187727
0.0082587
0.008308403
0.008178383
0.008132737
0.008069272
0.008002141
0.007935355
0.007869261
0.007803347
0.007737281
0.007671296
0.007606299
0.0075442
0.007488188
0.007442803
0.00741178
0.007397159
0.007399484
0.007419227
0.007456439
0.0075105
0.007578067
0.007654399
0.007735073
0.007816912
0.007898028
0.007977641
0.008055784
0.008132771
0.008208117
0.008277674
0.008326803
0.008195316
0.008150248
0.008088263
0.008023587
0.007960288
0.007898749
0.007838466
0.007779065
0.007720686
0.007664057
0.007610716
0.007562843
0.007523557
0.007496152
0.007483264
0.007486391
0.007506029
0.007541528
0.007591075
0.007651525
0.007719361
0.007791379
0.007865131
0.007939112
0.008012711
0.008085991
0.008159241
0.008231932
0.008299862
0.008348344
0.008214195
0.008169807
0.008109527
0.008047621
0.007988162
0.00793152
0.007877142
0.007824561
0.007773757
0.007725333
0.007680532
0.007640968
0.007608929
0.007586967
0.007577333
0.007581477
0.007599824
0.007631671
0.007675288
0.007728176
0.007787622
0.007851172
0.007916948
0.007983784
0.008051229
0.008119411
0.008188648
0.008258419
0.008324528
0.008372285
0.008234474
0.008190904
0.008132611
0.008073815
0.008018515
0.007966994
0.007918596
0.007872722
0.007829179
0.007788387
0.007751374
0.007719401
0.007694156
0.007677529
0.007671215
0.007676364
0.007693303
0.007721439
0.007759392
0.007805266
0.007857008
0.007912749
0.007971047
0.008031019
0.008092381
0.008155365
0.008220364
0.00828694
0.008350986
0.008397898
0.008255653
0.008213139
0.008157248
0.008102006
0.008051209
0.008004969
0.007962475
0.007922986
0.007886171
0.007852258
0.007822081
0.007796633
0.007777181
0.007765118
0.007761687
0.00776772
0.007783433
0.007808368
0.007841479
0.007881339
0.007926402
0.007975245
0.008026773
0.008080339
0.008135818
0.008193557
0.008254071
0.008317079
0.008378687
0.008424533
0.00827731
0.008236273
0.008183445
0.008132389
0.008086518
0.008045681
0.008008898
0.007975315
0.007944519
0.007916616
0.007892262
0.00787225
0.007857545
0.007849186
0.007848086
0.007854832
0.007869564
0.00789192
0.007921108
0.007956046
0.007995549
0.008038519
0.008084108
0.008131844
0.008181714
0.008234167
0.008289855
0.008348726
0.008407268
0.00845163
0.008299095
0.00826028
0.00821156
0.008165582
0.008125149
0.008089795
0.008058413
0.008030129
0.008004528
0.007981675
0.007962104
0.007946466
0.00793552
0.007930066
0.007930783
0.007938098
0.007952096
0.007972486
0.007998649
0.008029736
0.008064808
0.008102977
0.008143544
0.008186123
0.008230741
0.008277876
0.008328278
0.008382167
0.00843662
0.008478746
0.008320704
0.008285361
0.008242289
0.008202526
0.00816805
0.008138134
0.008111695
0.008087968
0.008066642
0.008047821
0.008031989
0.00801971
0.008011618
0.008008353
0.008010447
0.008018222
0.008031728