/*--------------------------------*- C++ -*----------------------------------*\
| =========                 |                                                 |
| \\      /  F ield         | OpenFOAM: The Open Source CFD Toolbox           |
|  \\    /   O peration     | Version:  2506                                  |
|   \\  /    A nd           | Website:  www.openfoam.com                      |
|    \\/     M anipulation  |                                                 |
\*---------------------------------------------------------------------------*/
FoamFile
{
    version     2.0;
    format      ascii;
    arch        "LSB;label=32;scalar=64";
    class       volScalarField;
    location    "2000/air";
    object      k;
}
// * * * * * * * * * * * * * * * * * * * * * * * * * * * * * * * * * * * * * //

dimensions      [0 2 -2 0 0 0 0];

internalField   nonuniform List<scalar> 
33752
(
0.05732236
0.05689096
0.0565108
0.05621893
0.05598414
0.05578714
0.05561696
0.05546708
0.0553343
0.05521796
0.05512122
0.05504666
0.05499794
0.05497874
0.05499217
0.05504016
0.05512325
0.05524045
0.05538938
0.05556663
0.05576829
0.05599054
0.05623032
0.05648603
0.05675833
0.05705128
0.05737381
0.05774433
0.05819621
0.05869232
0.05688078
0.05619673
0.05567767
0.05531839
0.0550505
0.05483693
0.05465755
0.05450128
0.05436283
0.05424122
0.05413935
0.05405948
0.0540056
0.05398182
0.05399156
0.05403699
0.05411869
0.05423554
0.05438492
0.05456309
0.05476585
0.05498929
0.05523065
0.05548934
0.05576839
0.05607679
0.05643307
0.05687357
0.05746766
0.05821691
0.0564938
0.05566793
0.05502185
0.05457773
0.05425562
0.05400609
0.05380044
0.05362255
0.05346448
0.05332425
0.05320486
0.05310885
0.05304096
0.05300613
0.05300849
0.0530507
0.05313342
0.0532553
0.0534131
0.05360237
0.05381817
0.05405621
0.05431389
0.05459182
0.05489574
0.05523965
0.05565029
0.05617532
0.05689445
0.05778296
0.05619124
0.05529542
0.05456258
0.05404445
0.05366415
0.05336887
0.05312522
0.05291341
0.05272325
0.05255209
0.05240357
0.05228103
0.05219049
0.05213833
0.05212991
0.05216864
0.05225541
0.05238838
0.05256338
0.05277461
0.05301586
0.05328181
0.0535696
0.05388045
0.05422195
0.05461122
0.05507878
0.05567511
0.05647767
0.05743424
0.05594105
0.05501066
0.0542216
0.05364387
0.05320688
0.05285993
0.05256878
0.0523118
0.05207727
0.05186264
0.05167268
0.05151218
0.05138926
0.05131247
0.0512891
0.0513238
0.05141776
0.0515685
0.05177031
0.05201532
0.05229514
0.05260265
0.05293384
0.0532897
0.05367839
0.05411801
0.05463953
0.05529196
0.05614797
0.05713771
0.05572449
0.05477699
0.0539507
0.05332553
0.05283564
0.05243382
0.05208745
0.05177499
0.05148407
0.05121341
0.05096918
0.05075841
0.0505922
0.05048236
0.05043899
0.05046862
0.05057302
0.05074878
0.05098795
0.05127954
0.05161182
0.05197474
0.05236209
0.05277354
0.05321657
0.05370876
0.05427999
0.05497695
0.05586836
0.05687405
0.05553137
0.05457486
0.05372188
0.05305753
0.05251854
0.05206028
0.05165245
0.05127514
0.05091623
0.0505775
0.05026617
0.04999227
0.04977095
0.04961844
0.04954893
0.04957171
0.0496896
0.04989805
0.05018592
0.05053778
0.05093706
0.05136933
0.05182498
0.05230133
0.05280432
0.05335042
0.05396821
0.05470253
0.05561959
0.05663332
0.05535604
0.05439388
0.05351967
0.05282107
0.05223578
0.05172041
0.05124637
0.05079607
0.0503588
0.04994183
0.04955155
0.04920183
0.04891299
0.04870697
0.04860311
0.04861611
0.04875061
0.04899994
0.04934799
0.04977399
0.05025476
0.0507698
0.05130492
0.05185429
0.05242202
0.05302344
0.05368623
0.05445413
0.05539206
0.05641065
0.05519611
0.05422948
0.0533368
0.05260681
0.0519772
0.05140478
0.05086167
0.05033213
0.04981039
0.0493071
0.04882573
0.0483837
0.04801015
0.04773683
0.04759234
0.04759431
0.04774827
0.04804622
0.04846802
0.04898374
0.04956125
0.05017111
0.05079524
0.05142436
0.05206071
0.05271886
0.05342607
0.0542257
0.05518233
0.05620486
0.05505153
0.05408074
0.05317119
0.05241187
0.05173985
0.05111146
0.05049882
0.04988716
0.0492796
0.04868034
0.04809461
0.04754897
0.04707936
0.04672858
0.04653519
0.04652576
0.04670748
0.04706597
0.04757057
0.04818199
0.04886235
0.04957796
0.05029915
0.05101272
0.05172006
0.05243551
0.05318649
0.05401664
0.0549909
0.05601737
0.05492387
0.05394914
0.05302415
0.05223774
0.051526
0.05084438
0.05016471
0.04947271
0.04877883
0.04807979
0.04738153
0.04671638
0.04613496
0.04571538
0.0454998
0.04548256
0.04567094
0.04606901
0.04667209
0.04739589
0.04818829
0.04900968
0.04982884
0.05062845
0.05140647
0.05217786
0.05297085
0.05382991
0.05482083
0.05585149
0.05481542
0.05383758
0.05289901
0.05208863
0.05134142
0.05061174
0.04987096
0.04910512
0.04832984
0.04752925
0.04671394
0.04592558
0.0453128
0.04486676
0.04461402
0.04458643
0.04479369
0.04521876
0.04582861
0.04665592
0.0475649
0.04849365
0.04940751
0.05028703
0.05113121
0.0519542
0.05278546
0.05367067
0.05467676
0.05571172
0.05473182
0.05375005
0.05280015
0.05197011
0.05119367
0.05042405
0.04963206
0.04880437
0.04795614
0.04706352
0.04614142
0.04532051
0.04465051
0.04414194
0.04384872
0.04380998
0.04403762
0.04451174
0.04518454
0.04601553
0.04703249
0.04806017
0.04905884
0.05000837
0.0509083
0.05177479
0.05263812
0.05354515
0.05456404
0.05560316
0.05467281
0.05368948
0.05273174
0.05188772
0.05109038
0.05029198
0.04946276
0.04858952
0.04768598
0.04672294
0.04573091
0.04489215
0.04416305
0.04360399
0.04327815
0.04322944
0.04347204
0.04398477
0.04471188
0.04558027
0.0466363
0.04774374
0.04880799
0.04981026
0.05075188
0.05165008
0.05253697
0.0534599
0.05448825
0.05553116
0.05464374
0.05365917
0.05269728
0.05184596
0.05103769
0.05022424
0.04937484
0.04847772
0.04754365
0.04654178
0.04553312
0.04466437
0.04390186
0.04331474
0.04297029
0.04291521
0.04316516
0.04369906
0.04445512
0.04535033
0.04641918
0.04757535
0.04867634
0.04970713
0.05067102
0.05158592
0.05248505
0.05341636
0.05444982
0.05549503
0.05464555
0.05366101
0.05269907
0.05184766
0.05103926
0.05022564
0.04937606
0.04847875
0.04754449
0.04654242
0.0455336
0.04466471
0.04390208
0.04331488
0.04297039
0.04291532
0.04316531
0.04369929
0.04445549
0.04535088
0.04641988
0.0475761
0.04867722
0.04970817
0.05067223
0.05158727
0.05248659
0.0534181
0.05445183
0.05549738
0.05467812
0.05369498
0.05273714
0.05189283
0.05109509
0.05029621
0.04946644
0.04859265
0.04768854
0.04672492
0.04573241
0.04489322
0.04416377
0.04360448
0.04327852
0.04322981
0.04347253
0.0439855
0.04471294
0.04558174
0.04663819
0.04774595
0.04881061
0.04981341
0.05075563
0.05165432
0.0525418
0.05346536
0.0544945
0.05553859
0.05474012
0.05375925
0.05280923
0.0519787
0.05120159
0.05043118
0.04963832
0.0488097
0.04796053
0.04706694
0.04614382
0.04532245
0.04465192
0.04414296
0.04384954
0.04381077
0.04403859
0.04451306
0.04518635
0.04601795
0.04703552
0.04806379
0.04906318
0.05001378
0.0509151
0.05178262
0.05264725
0.05355537
0.0545755
0.05561671
0.05482988
0.05385118
0.052912
0.05210084
0.05135266
0.05062188
0.04987992
0.04911281
0.04833623
0.04753427
0.04671719
0.04592832
0.04531514
0.04486859
0.04461555
0.04458791
0.04479536
0.04522084
0.04583129
0.04665935
0.04756909
0.04849861
0.04941337
0.05029413
0.05113993
0.05196417
0.05279695
0.05368343
0.05469093
0.05572808
0.05494192
0.05396678
0.05304108
0.05225367
0.05154068
0.05085765
0.05017649
0.04948291
0.04878743
0.04808684
0.04738705
0.04672076
0.04613841
0.04571827
0.0455023
0.04548495
0.04567351
0.046072
0.04667577
0.04740038
0.04819363
0.0490159
0.04983599
0.05063674
0.05141599
0.05218856
0.05298276
0.05384303
0.05483523
0.05586734
0.05507366
0.05410255
0.05319217
0.05243163
0.05175809
0.05112798
0.05051352
0.04989998
0.04929058
0.04868951
0.04810212
0.04755506
0.04708429
0.04673266
0.04653876
0.04652915
0.04671103
0.04706999
0.04757528
0.04818754
0.04886877
0.04958536
0.05030764
0.05102237
0.05173094
0.05244762
0.05319982
0.05403114
0.05500655
0.0560341
0.05522253
0.05425554
0.05336192
0.05263048
0.05199908
0.05142462
0.05087936
0.05034763
0.04982374
0.04931841
0.04883518
0.04839152
0.04801664
0.0477423
0.04759717
0.04759887
0.04775291
0.04805124
0.04847368
0.04899023
0.04956873
0.05017967
0.050805
0.05143542
0.05207313
0.05273263
0.05344113
0.05424194
0.0551996
0.05622303
0.05538682
0.05442427
0.05354898
0.05284872
0.05226133
0.0517436
0.05126706
0.05081423
0.05037448
0.0499552
0.04956283
0.04921129
0.04892095
0.04871377
0.04860913
0.04862173
0.04875621
0.04900588
0.04935453
0.04978137
0.05026318
0.05077943
0.05131591
0.05186675
0.05243599
0.05303891
0.0537031
0.05447219
0.0554109
0.05643037
0.05556648
0.05460955
0.05375535
0.05308911
0.05254774
0.05208677
0.05167609
0.0512959
0.05093417
0.05059283
0.05027915
0.05000321
0.0497802
0.04962639
0.04955596
0.04957824
0.04969602
0.04990472
0.05019318
0.05054592
0.05094632
0.05137994
0.05183713
0.05231512
0.05281981
0.05336756
0.05398688
0.05472255
0.05564069
0.05665527
0.05576378
0.05481583
0.05398818
0.0533609
0.05286833
0.05246348
0.0521139
0.05179822
0.05150415
0.05123056
0.05098372
0.05077067
0.05060259
0.05049128
0.05044687
0.05047589
0.05058011
0.05075609
0.05099584
0.05128836
0.05162187
0.05198628
0.05237532
0.05278859
0.05323347
0.05372747
0.05430038
0.05499883
0.05589147
0.05689809
0.05598423
0.05505333
0.05426279
0.05368274
0.0532428
0.05289251
0.05259782
0.05233727
0.05209929
0.05188144
0.0516886
0.05152562
0.05140064
0.05132223
0.05129771
0.05133171
0.05142543
0.05157637
0.05177878
0.05202478
0.05230593
0.05261505
0.05294807
0.05330589
0.05369659
0.05413817
0.05466151
0.05531554
0.05617289
0.05716363
0.05623782
0.05534145
0.054607
0.05408635
0.05370285
0.05340395
0.05315647
0.05294082
0.05274695
0.05257232
0.05242071
0.05229549
0.05220274
0.05214883
0.05213915
0.05217712
0.05226361
0.05239677
0.0525724
0.05278467
0.05302733
0.053295
0.05358473
0.05389767
0.05424131
0.05463267
0.05510217
0.0557002
0.05650417
0.05746178
0.05654308
0.05571659
0.05506878
0.05462198
0.05429646
0.0540431
0.05383341
0.05365147
0.05348948
0.0533456
0.05322296
0.05312415
0.05305392
0.05301725
0.05301829
0.05305968
0.05314211
0.05326417
0.05342264
0.05361299
0.05383028
0.05407011
0.05432984
0.05460996
0.05491613
0.05526223
0.05567489
0.05620169
0.05692227
0.05781184
0.05693186
0.05624711
0.05572619
0.05536409
0.05509267
0.05487514
0.05469159
0.05453114
0.05438866
0.05426331
0.0541581
0.05407534
0.05401907
0.05399341
0.05400179
0.05404639
0.05412779
0.05424485
0.05439491
0.05457422
0.05477852
0.05500384
0.05524732
0.05550828
0.05578967
0.05610034
0.05645871
0.056901
0.05749655
0.05824683
0.05737425
0.05694199
0.05655987
0.05626512
0.05602674
0.05582574
0.05565136
0.05549728
0.05536045
0.05524034
0.05514025
0.0550628
0.05501167
0.0549906
0.05500267
0.05504986
0.05513267
0.0552501
0.05539975
0.05557819
0.05578143
0.05600561
0.05624758
0.05650563
0.05678032
0.05707559
0.05740025
0.05777257
0.05822586
0.05872289
0.1051499
0.1049997
0.1047814
0.1045458
0.1043101
0.1040799
0.1038579
0.1036466
0.1034491
0.1032707
0.1031188
0.103001
0.1029251
0.1028984
0.1029267
0.1030134
0.1031591
0.1033616
0.1036157
0.1039142
0.1042484
0.1046089
0.1049865
0.1053724
0.105759
0.106139
0.1065043
0.1068439
0.1071354
0.1073214
0.1050002
0.10473
0.1044151
0.1041179
0.1038434
0.1035872
0.1033455
0.1031174
0.1029045
0.1027113
0.1025454
0.1024148
0.102328
0.1022928
0.1023156
0.1024
0.1025468
0.1027534
0.1030142
0.1033214
0.1036655
0.104037
0.1044263
0.1048256
0.1052287
0.1056321
0.1060342
0.1064347
0.1068241
0.1071338
0.1047736
0.1044075
0.1039891
0.1036101
0.1032738
0.1029689
0.1026861
0.1024206
0.1021721
0.1019448
0.1017469
0.1015874
0.1014763
0.1014227
0.1014342
0.1015151
0.1016662
0.1018845
0.1021633
0.1024934
0.1028641
0.1032645
0.1036847
0.1041174
0.1045582
0.1050073
0.1054692
0.1059508
0.1064448
0.1068532
0.1045194
0.1040926
0.1035928
0.1031363
0.1027315
0.102365
0.1020248
0.1017037
0.1014006
0.1011197
0.100871
0.1006657
0.100516
0.1004335
0.1004277
0.1005041
0.1006637
0.1009026
0.1012124
0.1015816
0.101997
0.1024455
0.1029158
0.1034002
0.1038952
0.1044033
0.1049318
0.10549
0.1060661
0.1065366
0.1042553
0.1037908
0.1032301
0.1027053
0.102231
0.1017947
0.1013837
0.1009904
0.1006137
0.1002591
0.09993964
0.09966983
0.0994656
0.09934234
0.09931246
0.09938336
0.0995563
0.09982603
0.1001816
0.1006078
0.1010876
0.1016043
0.102144
0.1026973
0.1032604
0.1038361
0.1044325
0.1050581
0.1056954
0.1062043
0.1039887
0.1034994
0.1028911
0.1023056
0.1017617
0.101249
0.1007555
0.1002741
0.0998048
0.09935554
0.09894396
0.09858923
0.09831272
0.0981352
0.09807346
0.09813756
0.09832923
0.09864138
0.09905918
0.09956225
0.1001278
0.100734
0.1013626
0.1020013
0.1026449
0.1032954
0.1039601
0.104646
0.1053311
0.1058652
0.1037239
0.1032162
0.1025681
0.1019264
0.1013126
0.1007178
0.1001311
0.09954642
0.09896574
0.09840045
0.09787431
0.09741259
0.09704418
0.09679724
0.09669468
0.09675039
0.0969668
0.09733431
0.09783268
0.09843429
0.09910849
0.09982613
0.1005632
0.1013034
0.1020391
0.1027708
0.1035051
0.1042473
0.1049725
0.1055251
0.1034646
0.1029415
0.1022579
0.1015624
0.1008779
0.1001961
0.0995068
0.09880506
0.09809501
0.09739321
0.09672978
0.09613806
0.09565666
0.09532358
0.0951701
0.09521548
0.09546326
0.09590032
0.09649901
0.09722201
0.09802832
0.09887939
0.09974392
0.1006006
0.1014388
0.1022579
0.1030635
0.1038602
0.1046217
0.1051899
0.1032151
0.1026782
0.1019614
0.1012137
0.100458
0.09968585
0.09888684
0.09805696
0.0972024
0.09634575
0.0955236
0.09477895
0.09416255
0.09372532
0.09350995
0.09354305
0.09382958
0.09435153
0.09507122
0.09593852
0.0968995
0.09790418
0.0989128
0.09989851
0.1008479
0.1017591
0.1026376
0.103488
0.104284
0.1048663
0.1029812
0.1024314
0.1016832
0.1008852
0.1000593
0.09919592
0.09828398
0.09731947
0.09631028
0.09528499
0.09428654
0.09336889
0.09259616
0.09203517
0.09174443
0.09176299
0.09209804
0.09272322
0.09358494
0.09461692
0.09575094
0.09692487
0.09808953
0.09921253
0.1002779
0.1012833
0.1022348
0.1031379
0.1039669
0.1045627
0.1027697
0.1022079
0.1014308
0.1005856
0.09969287
0.09874143
0.09771867
0.09661986
0.09545343
0.0942541
0.09306913
0.09196263
0.09101377
0.09030549
0.08991745
0.089918
0.09031785
0.09107263
0.09209595
0.0933107
0.09463029
0.09598068
0.09730521
0.09856676
0.09974742
0.100845
0.1018668
0.1028199
0.1036799
0.1042885
0.102588
0.1020157
0.101213
0.1003259
0.09937321
0.09834174
0.09721704
0.09599296
0.09467742
0.09330996
0.09194035
0.09063892
0.08948535
0.08863916
0.08817988
0.08816534
0.08860781
0.08947039
0.09068277
0.09209434
0.09359972
0.09512267
0.09660014
0.09799205
0.09927986
0.1004621
0.1015478
0.1025459
0.1034337
0.1040539
0.1024442
0.1018632
0.1010395
0.1001181
0.09911589
0.09801788
0.09680758
0.0954768
0.09403374
0.09251877
0.0909814
0.0894794
0.08818528
0.08722189
0.08669225
0.08666293
0.08714864
0.08810729
0.08944834
0.09105479
0.0927327
0.09440823
0.0960186
0.09752215
0.09890058
0.1001538
0.1012927
0.102328
0.1032388
0.1038688
0.1023444
0.1017573
0.1009188
0.09997298
0.09893542
0.09778954
0.09651722
0.09510834
0.09357138
0.09194555
0.09027608
0.08864114
0.08723427
0.08618128
0.085597
0.08555593
0.08607499
0.0871074
0.0885506
0.09027096
0.09209955
0.09389344
0.0956029
0.09718858
0.09863312
0.0999378
0.101115
0.1021771
0.1031044
0.1037417
0.1022943
0.101704
0.1008578
0.09989913
0.09884303
0.09767199
0.09636693
0.09491667
0.09332952
0.09164259
0.08989182
0.08819705
0.08672976
0.08562798
0.08501367
0.08496601
0.08550325
0.086576
0.08807479
0.08985453
0.09176497
0.09362367
0.09538648
0.09701588
0.09849542
0.0998272
0.1010246
0.1021007
0.1030368
0.1036781
0.1022967
0.1017064
0.1008601
0.09990129
0.098845
0.09767375
0.09636845
0.09491793
0.09333053
0.09164336
0.08989235
0.08819741
0.08672999
0.08562813
0.08501381
0.08496622
0.08550357
0.08657649
0.08807548
0.08985545
0.09176612
0.09362505
0.09538809
0.09701772
0.09849751
0.09982952
0.1010271
0.1021035
0.1030398
0.1036812
0.1023517
0.1017645
0.1009258
0.09997949
0.09894137
0.09779483
0.0965218
0.09511217
0.09357447
0.09194791
0.09027775
0.0886423
0.08723505
0.08618185
0.08559754
0.08555662
0.08607601
0.0871089
0.08855269
0.09027372
0.09210298
0.09389753
0.09560769
0.0971941
0.09863938
0.09994475
0.1011226
0.1021853
0.1031133
0.1037512
0.1024565
0.1018753
0.1010512
0.100129
0.09912593
0.09802683
0.09681536
0.09548334
0.09403906
0.09252292
0.09098447
0.08948161
0.08818688
0.08722315
0.08669345
0.08666435
0.08715055
0.08810994
0.08945191
0.09105942
0.09273837
0.09441497
0.09602649
0.09753125
0.09891091
0.1001653
0.1013053
0.1023416
0.1032534
0.1038845
0.102606
0.1020332
0.1012297
0.1003415
0.09938751
0.09835453
0.0972282
0.09600243
0.09468521
0.09331616
0.09194508
0.09064256
0.08948815
0.08864148
0.08818208
0.08816779
0.08861088
0.08947439
0.09068797
0.09210083
0.09360756
0.09513196
0.09661094
0.09800444
0.09929385
0.1004776
0.1015647
0.1025641
0.1034531
0.1040745
0.1027931
0.1022307
0.1014526
0.100606
0.09971162
0.09875826
0.09773343
0.0966325
0.09546397
0.09426269
0.09307598
0.09196809
0.09101818
0.09030923
0.08992099
0.0899218
0.09032234
0.09107817
0.0921028
0.09331904
0.09464028
0.0959924
0.09731874
0.09858214
0.09976463
0.100864
0.1018874
0.1028419
0.1037032
0.1043128
0.1030102
0.1024597
0.1017104
0.1009107
0.1000826
0.09921697
0.09830254
0.09733549
0.0963238
0.0952962
0.0942957
0.09337637
0.09260239
0.0920406
0.09174956
0.09176832
0.09210403
0.09273028
0.09359342
0.09462708
0.09576296
0.0969389
0.09810565
0.09923076
0.1002982
0.1013056
0.1022589
0.1031635
0.1039938
0.1045905
0.1032498
0.1027122
0.101994
0.1012443
0.1004862
0.09971126
0.09890934
0.0980765
0.09721905
0.09635972
0.0955352
0.09478859
0.09417069
0.09373249
0.09351668
0.09354989
0.09383705
0.09436011
0.09508129
0.09595041
0.09691346
0.0979204
0.09893137
0.09991949
0.1008712
0.1017846
0.1026651
0.1035173
0.1043146
0.1048978
0.1035051
0.1029812
0.102296
0.1015982
0.1009109
0.100226
0.09953331
0.09882819
0.09811485
0.09741
0.09674387
0.09614989
0.09566675
0.0953325
0.09517843
0.09522381
0.09547216
0.09591032
0.09651057
0.09723552
0.0980441
0.09889766
0.09976482
0.1006242
0.101465
0.1022866
0.1030944
0.103893
0.104656
0.105225
0.1037702
0.1032615
0.1026117
0.1019674
0.1013504
0.1007521
0.1001616
0.09957309
0.09898873
0.09842002
0.09789085
0.09742658
0.09705618
0.09680784
0.09670453
0.09676012
0.09697704
0.09734564
0.09784561
0.09844929
0.09912593
0.09984628
0.1005863
0.1013295
0.102068
0.1028025
0.1035393
0.1042835
0.1050103
0.1055639
0.1040407
0.1035502
0.1029399
0.1023515
0.1018041
0.1012875
0.1007898
0.1003041
0.0998308
0.09937775
0.09896282
0.09860524
0.0983265
0.09814738
0.09808471
0.09814858
0.09834068
0.09865391
0.09907336
0.0995786
0.1001468
0.1007559
0.1013876
0.1020296
0.1026764
0.1033299
0.1039974
0.1046856
0.1053723
0.1059074
0.1043124
0.1038468
0.1032838
0.1027559
0.1022777
0.1018371
0.1014215
0.1010236
0.1006424
0.1002837
0.0999606
0.09968769
0.09948098
0.09935593
0.09932497
0.09939553
0.09956883
0.09983962
0.1001968
0.1006253
0.1011078
0.1016277
0.1021708
0.1027276
0.1032942
0.1038732
0.1044725
0.1051006
0.1057398
0.1062497
0.1045811
0.104153
0.1036508
0.1031909
0.1027819
0.1024108
0.1020656
0.1017396
0.1014317
0.1011464
0.1008938
0.1006851
0.1005327
0.1004483
0.1004412
0.1005172
0.1006772
0.1009171
0.1012286
0.1016002
0.1020184
0.1024702
0.1029441
0.1034322
0.103931
0.1044425
0.1049742
0.105535
0.106113
0.1065847
0.1048391
0.1044716
0.1040507
0.103668
0.1033273
0.1030174
0.1027294
0.1024586
0.1022052
0.1019732
0.1017711
0.1016081
0.1014941
0.1014385
0.1014486
0.101529
0.1016804
0.1018997
0.1021803
0.1025128
0.1028865
0.1032903
0.1037143
0.1041508
0.1045956
0.1050484
0.1055135
0.1059979
0.1064939
0.1069034
0.1050683
0.1047967
0.1044791
0.1041781
0.103899
0.1036376
0.1033905
0.1031569
0.1029388
0.1027408
0.1025706
0.1024363
0.1023466
0.1023092
0.1023306
0.1024145
0.1025616
0.1027692
0.1030318
0.1033414
0.1036887
0.1040636
0.1044568
0.1048601
0.1052674
0.1056745
0.1060801
0.1064833
0.1068748
0.1071856
0.1052193
0.1050677
0.1048466
0.1046072
0.1043667
0.1041312
0.1039038
0.1036869
0.1034841
0.1033008
0.1031445
0.103023
0.1029441
0.1029152
0.102942
0.1030282
0.1031742
0.1033777
0.1036336
0.1039347
0.104272
0.1046361
0.1050176
0.1054077
0.1057984
0.1061822
0.1065511
0.1068935
0.107187
0.1073741
0.1240374
0.1239587
0.1238233
0.1236527
0.1234621
0.123261
0.1230561
0.1228531
0.1226583
0.1224795
0.1223259
0.1222073
0.1221331
0.1221119
0.1221504
0.1222523
0.1224181
0.122645
0.1229268
0.1232547
0.1236182
0.1240056
0.1244051
0.124805
0.1251942
0.1255613
0.1258939
0.1261766
0.1263892
0.1265066
0.123952
0.1238355
0.1236568
0.1234494
0.1232291
0.1230031
0.1227762
0.1225527
0.1223382
0.1221404
0.1219689
0.1218343
0.1217468
0.1217157
0.1217482
0.1218484
0.1220171
0.1222508
0.122543
0.1228842
0.1232629
0.1236669
0.1240839
0.1245025
0.124912
0.1253025
0.1256639
0.125983
0.1262392
0.1263955
0.1238007
0.1236412
0.123404
0.1231397
0.1228682
0.122596
0.1223258
0.1220606
0.1218055
0.1215682
0.1213596
0.1211917
0.1210764
0.1210246
0.1210448
0.1211421
0.121317
0.1215658
0.1218805
0.1222501
0.1226616
0.123101
0.1235553
0.1240125
0.1244627
0.1248974
0.1253086
0.1256842
0.1259995
0.1261997
0.1236039
0.1234082
0.1231144
0.1227877
0.1224538
0.1221204
0.1217894
0.1214631
0.1211467
0.1208491
0.1205831
0.1203634
0.1202046
0.1201206
0.120122
0.120215
0.1204004
0.1206736
0.1210246
0.1214396
0.1219028
0.1223977
0.122909
0.1234238
0.123932
0.1244259
0.1248978
0.1253352
0.1257075
0.1259447
0.1233771
0.1231524
0.1228082
0.1224195
0.1220175
0.1216118
0.1212047
0.120799
0.1204008
0.120021
0.1196757
0.1193838
0.1191643
0.1190351
0.1190101
0.1190976
0.1192987
0.1196071
0.12001
0.1204896
0.1210255
0.1215972
0.122186
0.1227769
0.1233584
0.1239225
0.1244612
0.12496
0.125383
0.1256496
0.1231313
0.1228826
0.122493
0.1220438
0.12157
0.1210829
0.120586
0.1200832
0.1195823
0.1190973
0.1186492
0.1182627
0.117963
0.1177738
0.1177139
0.1177946
0.1180172
0.1183735
0.1188462
0.1194117
0.1200434
0.1207147
0.1214022
0.1220872
0.1227563
0.1234002
0.1240098
0.1245687
0.1250373
0.1253283
0.1228744
0.1226046
0.122173
0.1216642
0.1211152
0.1205389
0.1199397
0.1193228
0.1186984
0.1180846
0.1175088
0.1170034
0.1166018
0.1163361
0.1162318
0.116304
0.1165549
0.1169731
0.1175356
0.1182107
0.1189631
0.119758
0.1205656
0.1213626
0.1221327
0.122865
0.1235493
0.1241681
0.1246792
0.1249916
0.1226135
0.1223242
0.1218526
0.1212843
0.1206576
0.1199854
0.1192729
0.1185264
0.1177588
0.1169929
0.1162643
0.1156144
0.115088
0.1147279
0.1145686
0.1146306
0.114917
0.1154128
0.1160866
0.1168962
0.1177948
0.1187374
0.1196859
0.1206116
0.1214948
0.1223233
0.123086
0.123765
0.124317
0.1246494
0.1223561
0.1220483
0.1215379
0.1209107
0.1202045
0.119432
0.1185979
0.1177093
0.1167817
0.1158429
0.1149378
0.1141189
0.1134446
0.1129715
0.1127461
0.1127961
0.1131259
0.1137152
0.1145223
0.115491
0.1165603
0.1176726
0.1187803
0.1198486
0.1208548
0.1217852
0.122629
0.1233684
0.1239604
0.1243121
0.1221104
0.1217849
0.1212374
0.1205528
0.1197678
0.1188935
0.1179339
0.116896
0.115797
0.11467
0.1135697
0.112561
0.111718
0.1111146
0.1108123
0.1108485
0.1112294
0.1119279
0.1128884
0.1140375
0.1152973
0.1165961
0.117876
0.1190959
0.1202305
0.1212655
0.1221907
0.1229897
0.1236206
0.1239907
0.1218854
0.1215437
0.1209616
0.120223
0.1193627
0.11839
0.1173071
0.11612
0.1148471
0.1135265
0.1122216
0.11101
0.1099831
0.1092351
0.1088468
0.1088678
0.1093063
0.1101271
0.1112567
0.1126008
0.1140623
0.115555
0.117011
0.1183838
0.1196458
0.120783
0.1217869
0.1226426
0.12331
0.1236974
0.1216908
0.1213347
0.1207221
0.1199354
0.1190075
0.1179453
0.1167489
0.1154229
0.1139854
0.1124791
0.1109743
0.1095595
0.1083403
0.107438
0.1069613
0.1069665
0.1074636
0.1084139
0.1097247
0.1112671
0.1129277
0.1146081
0.116232
0.1177484
0.1191286
0.1203597
0.1214349
0.1223415
0.1230416
0.1234445
0.1215357
0.1211679
0.1205304
0.1197044
0.1187207
0.1175842
0.1162926
0.1148487
0.1132702
0.1116027
0.1099208
0.1083186
0.1069289
0.1059033
0.1053517
0.1053428
0.1058893
0.1069439
0.108407
0.1101364
0.1119756
0.1138205
0.1155893
0.1172282
0.1187083
0.1200179
0.1211523
0.1221011
0.1228279
0.1232436
0.1214283
0.1210522
0.120397
0.119543
0.1185194
0.1173294
0.1159689
0.1144392
0.112757
0.1109697
0.109154
0.1074065
0.1058986
0.1047785
0.1041697
0.1041499
0.1047338
0.1058683
0.1074423
0.1093104
0.1112859
0.1132541
0.1151301
0.1168588
0.1184116
0.1197779
0.1209549
0.1219338
0.1226799
0.1231046
0.1213745
0.120994
0.1203297
0.119461
0.1184165
0.1171984
0.1158016
0.1142264
0.112489
0.1106376
0.1087496
0.1069269
0.105354
0.1041823
0.1035424
0.1035166
0.1041207
0.1052989
0.1069333
0.1088725
0.1109233
0.1129581
0.1148913
0.1166676
0.1182588
0.1196551
0.1208544
0.1218491
0.1226052
0.1230348
0.1213777
0.1209972
0.1203327
0.1194639
0.1184192
0.1172008
0.1158037
0.1142282
0.1124905
0.1106388
0.1087506
0.1069276
0.1053545
0.1041828
0.1035428
0.103517
0.1041213
0.1052996
0.1069343
0.1088736
0.1109247
0.1129597
0.1148932
0.1166698
0.1182612
0.1196577
0.1208573
0.1218521
0.1226084
0.1230381
0.121438
0.1210617
0.1204062
0.1195517
0.1185274
0.1173366
0.1159752
0.1144446
0.1127615
0.1109734
0.1091569
0.1074087
0.1059004
0.10478
0.1041711
0.1041514
0.1047356
0.1058706
0.1074452
0.109314
0.1112902
0.1132591
0.1151358
0.1168652
0.1184187
0.1197858
0.1209634
0.1219428
0.1226892
0.1231143
0.121552
0.1211839
0.1205458
0.119719
0.1187341
0.1175963
0.1163033
0.114858
0.113278
0.111609
0.1099259
0.1083226
0.1069321
0.105906
0.1053543
0.1053455
0.1058925
0.1069479
0.1084119
0.1101423
0.1119827
0.1138287
0.1155987
0.1172388
0.1187201
0.1200308
0.1211662
0.1221158
0.1228433
0.1232595
0.1217139
0.1213573
0.1207438
0.119956
0.1190264
0.1179625
0.1167641
0.1154361
0.1139965
0.1124883
0.1109818
0.1095656
0.1083452
0.1074422
0.1069653
0.1069707
0.1074684
0.1084196
0.1097316
0.1112753
0.1129375
0.1146195
0.116245
0.117763
0.1191448
0.1203773
0.1214538
0.1223616
0.1230626
0.1234661
0.1219154
0.1215731
0.1209899
0.1202497
0.1193874
0.1184124
0.117327
0.1161374
0.1148619
0.1135389
0.1122318
0.1110184
0.1099901
0.1092412
0.1088525
0.1088736
0.1093128
0.1101346
0.1112656
0.1126113
0.1140747
0.1155693
0.1170274
0.1184022
0.1196661
0.1208051
0.1218106
0.1226677
0.1233361
0.1237242
0.1221474
0.1218212
0.1212723
0.1205858
0.1197983
0.1189212
0.1179586
0.1169176
0.1158156
0.1146857
0.1135828
0.1125719
0.1117272
0.1111227
0.1108198
0.1108561
0.1112377
0.1119373
0.1128993
0.1140503
0.1153122
0.1166132
0.1178955
0.1191179
0.1202547
0.1212918
0.122219
0.1230196
0.1236516
0.1240224
0.1224002
0.1220916
0.1215795
0.12095
0.120241
0.1194651
0.1186276
0.1177354
0.1168042
0.115862
0.1149539
0.1141325
0.1134561
0.1129817
0.1127555
0.1128055
0.1131359
0.1137263
0.114535
0.1155058
0.1165775
0.1176924
0.1188028
0.1198739
0.1208827
0.1218156
0.1226616
0.1234028
0.1239962
0.1243486
0.1226648
0.1223745
0.1219009
0.12133
0.1206999
0.120024
0.1193075
0.1185568
0.1177852
0.1170155
0.1162834
0.1156307
0.115102
0.1147402
0.1145799
0.1146417
0.1149287
0.1154256
0.1161011
0.116913
0.1178142
0.1187597
0.1197113
0.12064
0.1215263
0.1223575
0.1231228
0.1238038
0.1243573
0.1246906
0.1229327
0.1226617
0.122228
0.1217161
0.1211634
0.1205828
0.1199791
0.1193575
0.1187286
0.1181105
0.1175309
0.1170222
0.116618
0.1163504
0.116245
0.1163168
0.1165681
0.1169875
0.1175518
0.1182293
0.1189844
0.1197825
0.1205935
0.1213939
0.1221674
0.1229028
0.12359
0.1242111
0.1247238
0.1250372
0.1231963
0.1229463
0.1225543
0.1221017
0.1216237
0.1211318
0.1206299
0.120122
0.1196161
0.1191263
0.1186741
0.1182839
0.1179812
0.1177899
0.1177287
0.1178089
0.1180319
0.1183893
0.1188638
0.1194319
0.1200666
0.1207413
0.1214325
0.1221212
0.1227941
0.1234414
0.1240541
0.1246156
0.125086
0.125378
0.1234484
0.1232223
0.1228753
0.1224829
0.1220763
0.1216654
0.1212528
0.1208415
0.1204378
0.1200529
0.119703
0.1194072
0.1191845
0.1190528
0.1190264
0.1191133
0.1193146
0.1196242
0.120029
0.1205111
0.1210502
0.1216255
0.1222183
0.1228132
0.1233988
0.1239667
0.1245087
0.1250103
0.1254353
0.125703
0.1236806
0.1234834
0.1231867
0.1228559
0.122517
0.122178
0.121841
0.1215087
0.1211865
0.1208834
0.1206125
0.1203885
0.1202264
0.1201398
0.1201395
0.1202317
0.1204174
0.1206917
0.1210446
0.1214623
0.1219288
0.1224275
0.122943
0.1234622
0.1239747
0.1244726
0.1249481
0.1253885
0.1257629
0.1260012
0.1238819
0.1237208
0.1234805
0.1232118
0.1229349
0.1226568
0.1223803
0.1221088
0.1218475
0.1216044
0.1213907
0.1212183
0.1210994
0.1210449
0.1210633
0.1211597
0.1213348
0.1215846
0.1219014
0.1222738
0.1226886
0.1231321
0.1235907
0.1240524
0.1245071
0.1249462
0.1253611
0.1257398
0.1260573
0.1262587
0.1240364
0.1239181
0.1237362
0.1235243
0.1232983
0.1230662
0.1228327
0.1226026
0.1223817
0.1221779
0.1220011
0.1218619
0.1217707
0.1217367
0.1217673
0.1218667
0.1220354
0.1222703
0.1225645
0.1229084
0.1232907
0.1236988
0.1241203
0.1245436
0.1249577
0.1253527
0.125718
0.1260403
0.1262988
0.1264563
0.1241233
0.1240429
0.1239042
0.123729
0.1235327
0.1233252
0.1231136
0.1229039
0.1227026
0.1225177
0.1223587
0.1222354
0.1221574
0.1221333
0.1221699
0.1222708
0.1224368
0.1226647
0.1229485
0.1232793
0.1236464
0.124038
0.124442
0.1248467
0.1252407
0.1256123
0.1259489
0.1262348
0.1264497
0.1265683
0.1349274
0.1348784
0.1347861
0.1346598
0.1345088
0.1343411
0.1341633
0.1339823
0.1338054
0.1336413
0.1335
0.1333921
0.1333279
0.1333163
0.1333643
0.1334757
0.133651
0.133887
0.134177
0.1345116
0.1348793
0.1352676
0.1356634
0.136054
0.1364269
0.1367698
0.1370699
0.1373137
0.137487
0.1375772
0.134868
0.1348058
0.1346934
0.1345451
0.1343725
0.1341836
0.1339852
0.1337835
0.133586
0.1334018
0.1332416
0.1331168
0.1330385
0.1330165
0.1330584
0.1331686
0.1333474
0.1335913
0.1338931
0.1342426
0.1346273
0.1350339
0.1354487
0.1358586
0.1362511
0.1366141
0.1369352
0.1372004
0.1373937
0.1374971
0.1347545
0.1346724
0.1345271
0.1343405
0.1341278
0.1338986
0.1336593
0.1334163
0.1331774
0.1329524
0.1327536
0.1325941
0.1324868
0.1324435
0.1324731
0.1325807
0.1327668
0.1330273
0.1333535
0.1337336
0.1341532
0.1345973
0.1350508
0.1354996
0.1359309
0.1363327
0.1366924
0.1369953
0.1372213
0.1373448
0.1345963
0.1344926
0.1343091
0.1340749
0.1338094
0.133524
0.1332259
0.1329219
0.1326206
0.1323337
0.1320754
0.1318622
0.1317101
0.1316336
0.131644
0.1317478
0.1319457
0.1322322
0.1325969
0.1330249
0.1334989
0.1340006