/*--------------------------------*- C++ -*----------------------------------*\
| =========                 |                                                 |
| \\      /  F ield         | OpenFOAM: The Open Source CFD Toolbox           |
|  \\    /   O peration     | Version:  2506                                  |
|   \\  /    A nd           | Website:  www.openfoam.com                      |
|    \\/     M anipulation  |                                                 |
\*---------------------------------------------------------------------------*/
FoamFile
{
    version     2.0;
    format      ascii;
    arch        "LSB;label=32;scalar=64";
    class       volScalarField;
    location    "2000/air";
    object      nut;
}
// * * * * * * * * * * * * * * * * * * * * * * * * * * * * * * * * * * * * * //

dimensions      [0 2 -1 0 0 0 0];

internalField   nonuniform List<scalar> 
33752
(
0.008149348
0.008118522
0.008091276
0.008070327
0.008053473
0.008039348
0.008027169
0.00801647
0.00800702
0.007998761
0.007991916
0.007986661
0.007983246
0.007981926
0.007982913
0.007986339
0.007992236
0.008000532
0.008011057
0.008023571
0.0080378
0.008053477
0.008070391
0.008088434
0.008107658
0.008128354
0.008151153
0.008177347
0.008209261
0.008244208
0.008117823
0.008068744
0.008031312
0.008005338
0.007985963
0.00797054
0.007957618
0.007946396
0.007936489
0.007927816
0.007920581
0.007914935
0.007911152
0.007909517
0.007910263
0.007913539
0.007919381
0.007927707
0.00793833
0.007950986
0.007965381
0.007981242
0.00799838
0.008016762
0.008036611
0.008058573
0.008083968
0.008115365
0.008157632
0.008210691
0.008090131
0.008030657
0.007983833
0.007951534
0.007928087
0.007909949
0.007895047
0.007882208
0.007870847
0.00786081
0.007852305
0.007845503
0.007840726
0.007838317
0.007838562
0.007841641
0.007847596
0.007856326
0.007867604
0.007881114
0.007896512
0.007913498
0.007931898
0.007951768
0.00797353
0.007998197
0.008027681
0.008065361
0.008116824
0.008180025
0.008068481
0.008003796
0.007950506
0.007912676
0.007884875
0.007863322
0.007845599
0.007830261
0.007816557
0.007804281
0.007793684
0.007784986
0.007778605
0.007774978
0.007774478
0.007777339
0.007783614
0.007793172
0.007805716
0.007820839
0.007838105
0.007857147
0.007877773
0.007900087
0.007924651
0.007952707
0.007986444
0.008029438
0.0080871
0.00815536
0.008050618
0.007983298
0.007925784
0.007883494
0.007851464
0.007826073
0.007804845
0.007786198
0.007769266
0.007753849
0.007740274
0.007728863
0.007720175
0.007714808
0.007713264
0.007715864
0.007722684
0.007733544
0.007748039
0.007765616
0.007785685
0.007807752
0.007831547
0.007857162
0.007885203
0.007916988
0.007954737
0.00800192
0.008063596
0.008134398
0.008035214
0.007966546
0.007906215
0.007860378
0.007824416
0.007794969
0.007769682
0.007746982
0.007725954
0.007706489
0.007689008
0.007673989
0.007662206
0.007654485
0.007651532
0.007653797
0.007661395
0.007674082
0.00769129
0.007712243
0.007736115
0.007762202
0.007790079
0.007819746
0.007851764
0.007887414
0.00792884
0.007979342
0.008043699
0.008115786
0.008021548
0.007952136
0.00788978
0.007841024
0.00780143
0.007767828
0.007738038
0.007710608
0.007684644
0.007660253
0.007637933
0.007618368
0.007602623
0.00759184
0.007587031
0.007588832
0.007597433
0.007612508
0.007633256
0.007658583
0.007687313
0.007718428
0.007751262
0.007785644
0.007822028
0.007861616
0.007906462
0.007959735
0.008026044
0.008098827
0.008009217
0.00793932
0.007875357
0.007824061
0.00778106
0.007743272
0.007708644
0.007675895
0.007644243
0.007614189
0.007586159
0.007561112
0.007540487
0.007525814
0.007518561
0.007519681
0.007529511
0.007547591
0.007572722
0.007603445
0.0076381
0.007675219
0.007713814
0.007753491
0.00779457
0.007838177
0.007886306
0.00794205
0.00800994
0.008083174
0.007998047
0.007927764
0.00786241
0.007808801
0.007762556
0.007720602
0.007680936
0.007642411
0.007604633
0.00756833
0.007533679
0.007501926
0.007475155
0.007455655
0.007445412
0.00744575
0.00745704
0.00747867
0.007509203
0.007546468
0.007588179
0.007632178
0.007677228
0.00772268
0.007768723
0.007816433
0.00786778
0.007925842
0.007995138
0.00806874
0.007988032
0.007917397
0.007850782
0.007795024
0.007745686
0.007699657
0.007654927
0.007610431
0.007566414
0.00752314
0.007480883
0.007441528
0.00740768
0.007382457
0.007368622
0.007368165
0.007381588
0.007407755
0.007444425
0.007488704
0.007537878
0.007589594
0.007641699
0.007693265
0.007744435
0.007796275
0.007850779
0.007911054
0.007981662
0.008055618
0.007979277
0.007908316
0.007840554
0.007782821
0.007730595
0.007680697
0.007631091
0.007580759
0.007530513
0.00747991
0.007429353
0.007381117
0.007338859
0.007308895
0.007293494
0.007292501
0.007306443
0.007335266
0.007379384
0.007432028
0.007489445
0.00754886
0.007608066
0.007665863
0.007722134
0.007778
0.007835523
0.007897882
0.00796972
0.008044034
0.007971937
0.00790072
0.007831956
0.007772479
0.007717679
0.007664291
0.007610237
0.007554544
0.007498356
0.007440289
0.007381016
0.007323478
0.007279305
0.007247012
0.007228779
0.007227042
0.007242493
0.007273761
0.007318392
0.007378524
0.007444609
0.007511893
0.007577986
0.007641557
0.0077026
0.007762175
0.007822443
0.00788668
0.007959629
0.008034297
0.00796641
0.007894885
0.007825288
0.007764382
0.007707462
0.007651168
0.00759338
0.007533216
0.007471663
0.007406788
0.007339469
0.007279908
0.007231044
0.007193866
0.00717251
0.007169947
0.007187034
0.007222164
0.007271624
0.007332012
0.007406236
0.007480836
0.00755312
0.00762176
0.007686815
0.007749514
0.007812076
0.007877877
0.007951759
0.008026757
0.00796266
0.00789101
0.007820836
0.007758914
0.007700472
0.007642073
0.007581535
0.007518132
0.007452475
0.007382364
0.007310199
0.007248917
0.00719541
0.007154283
0.007130385
0.007127072
0.007145365
0.007183542
0.007237233
0.007300824
0.007377632
0.00745816
0.00753525
0.007607716
0.007675772
0.007740743
0.007804991
0.007871929
0.007946496
0.008021786
0.007961066
0.00788932
0.00781884
0.007756383
0.007697138
0.007637636
0.007575639
0.007510428
0.007442517
0.007369479
0.007296102
0.00723249
0.007176364
0.007133029
0.007107664
0.007103858
0.007122739
0.007162571
0.00721851
0.007284161
0.00736191
0.007446105
0.007525894
0.007600434
0.007670096
0.007736262
0.007801383
0.00786892
0.007943858
0.008019322
0.007961687
0.007889945
0.007819459
0.007756984
0.007697712
0.007638173
0.007576132
0.007510874
0.007442914
0.007369825
0.007296409
0.007232752
0.007176585
0.007133216
0.007107824
0.007103992
0.007122852
0.007162666
0.007218597
0.007284251
0.007362009
0.007446206
0.007526008
0.007600563
0.00767024
0.007736417
0.007801553
0.007869104
0.00794406
0.008019548
0.007964504
0.007892874
0.007822683
0.007760709
0.007702184
0.007643677
0.00758301
0.007519467
0.00745366
0.007383397
0.007311112
0.007249694
0.007196063
0.007154832
0.007130846
0.007127458
0.007145687
0.007183815
0.007237484
0.007301083
0.007377909
0.007458459
0.007535588
0.007608105
0.007676213
0.007741224
0.007805516
0.007872499
0.007947122
0.008022492
0.007969417
0.007897968
0.007828346
0.007767353
0.007710297
0.007653825
0.007595827
0.007535427
0.007473627
0.007408496
0.00734093
0.007281186
0.007232118
0.007194758
0.00717325
0.007170561
0.007187545
0.007222606
0.007272039
0.007332443
0.007406684
0.007481329
0.007553684
0.007622422
0.007687592
0.007750372
0.007813033
0.007878912
0.007952879
0.008028019
0.007976303
0.007905037
0.007836207
0.007776601
0.007721611
0.007667978
0.007613633
0.007557615
0.007501085
0.007442658
0.007383001
0.007325197
0.007280791
0.007248244
0.007229794
0.00722788
0.007243197
0.007274382
0.007318982
0.007379111
0.007445229
0.00751258
0.007578765
0.007642451
0.00770363
0.007763305
0.007823687
0.007888018
0.007961063
0.008035878
0.00798477
0.007913796
0.007845953
0.007788053
0.007735585
0.007685379
0.007635408
0.007584667
0.007533987
0.007482944
0.007431946
0.007383317
0.007340714
0.007310473
0.007294798
0.007293583
0.007307363
0.007336073
0.007380135
0.007432779
0.007490245
0.007549745
0.007609049
0.007666954
0.007723332
0.007779296
0.007836915
0.007899365
0.00797129
0.008045697
0.007994634
0.007923992
0.007857278
0.007801318
0.007751686
0.007705286
0.007660123
0.007615145
0.007570625
0.007526818
0.00748404
0.0074442
0.007409913
0.007384311
0.00737016
0.00736945
0.007382684
0.007408731
0.007445349
0.007489638
0.007538868
0.007590679
0.007642891
0.007694565
0.007745842
0.007797788
0.007852393
0.007912759
0.007983445
0.008057466
0.008005711
0.00793542
0.007869947
0.007816097
0.007769505
0.007727119
0.007686954
0.007647878
0.00760952
0.00757262
0.007537376
0.007505062
0.00747778
0.007457837
0.007447224
0.007447271
0.007458349
0.007479845
0.007510323
0.007547601
0.007589381
0.007633468
0.007678623
0.007724187
0.007770349
0.007818179
0.007869639
0.007927796
0.007997163
0.008070815
0.008017881
0.007947971
0.007883867
0.00783229
0.007788888
0.007750607
0.007715415
0.007682052
0.007649747
0.007619039
0.007590361
0.007564697
0.007543507
0.007528337
0.007520668
0.007521462
0.007531056
0.00754899
0.007574055
0.00760478
0.007639488
0.007676692
0.007715394
0.007755196
0.007796411
0.007840158
0.007888414
0.00794426
0.008012203
0.008085484
0.008031136
0.007961706
0.007899186
0.007850107
0.007810057
0.007775899
0.007745481
0.007717375
0.0076907
0.007665598
0.007642581
0.007622356
0.007606006
0.007594689
0.007589431
0.007590876
0.007599216
0.007614122
0.007634784
0.007660095
0.007688865
0.007720062
0.00775301
0.007787533
0.007824074
0.007863823
0.007908816
0.007962206
0.00802859
0.008101416
0.008045634
0.007976943
0.007916424
0.007870223
0.007833751
0.007803686
0.007777707
0.00775427
0.007732477
0.00771225
0.007694031
0.007678316
0.007665897
0.007657613
0.007654185
0.007656069
0.007663382
0.007675877
0.007692978
0.0077139
0.007737803
0.007763974
0.007791978
0.007821804
0.007854001
0.007889832
0.007931424
0.007982059
0.008046505
0.008118636
0.008061756
0.007994407
0.007936683
0.00789399
0.007861401
0.007835335
0.007813355
0.007793912
0.007776166
0.007759943
0.007745594
0.007733456
0.007724106
0.007718154
0.007716114
0.007718312
0.007724827
0.007735478
0.007749851
0.007767387
0.007787486
0.007809643
0.007833578
0.00785937
0.00788761
0.007919595
0.007957528
0.008004857
0.00806663
0.008137479
0.008080198
0.008015477
0.007961957
0.007923692
0.007895289
0.007873011
0.007854485
0.007838302
0.00782374
0.00781062
0.007799217
0.007789769
0.007782705
0.007778477
0.007777466
0.00777991
0.007785867
0.007795203
0.007807618
0.007822697
0.007839995
0.007859136
0.007879915
0.007902422
0.007927201
0.007955473
0.007989408
0.00803256
0.008090327
0.008158634
0.008102258
0.00804274
0.007995669
0.007962909
0.007938827
0.007919929
0.007904186
0.007890466
0.007878215
0.007867305
0.007857973
0.007850402
0.00784493
0.007841909
0.007841634
0.007844288
0.007849919
0.007858423
0.007869569
0.007883035
0.007898471
0.007915564
0.007934128
0.007954201
0.007976189
0.008001083
0.008030775
0.008068622
0.008120196
0.008183446
0.008130171
0.008081035
0.00804334
0.008016888
0.007996859
0.007980655
0.007966872
0.00795475
0.007943937
0.007934377
0.007926303
0.007919881
0.007915398
0.007913148
0.007913372
0.007916224
0.007921741
0.007929841
0.007940333
0.007952949
0.007967386
0.00798336
0.008000668
0.008019259
0.00803934
0.008061535
0.008087143
0.008118711
0.008161092
0.008214203
0.008161754
0.008130842
0.00810332
0.008081885
0.008064372
0.008049462
0.00803642
0.008024818
0.008014459
0.008005313
0.00799763
0.007991602
0.00798749
0.00798556
0.007986028
0.007989034
0.00799461
0.008002683
0.00801308
0.008025557
0.008039831
0.008055623
0.008072709
0.008090963
0.00811042
0.008131349
0.00815436
0.008180725
0.008212754
0.008247756
0.07704008
0.07715025
0.07717784
0.07714515
0.07708182
0.07700362
0.07691869
0.07683182
0.07674682
0.0766674
0.07659749
0.07654195
0.07650533
0.07649172
0.07650424
0.07654471
0.0766134
0.07670893
0.07682847
0.07696795
0.07712249
0.07728676
0.07745527
0.07762248
0.07778242
0.07792768
0.0780472
0.07812205
0.0781189
0.07801234
0.07714936
0.07731132
0.07736462
0.07733839
0.07727185
0.07718586
0.07709103
0.07699337
0.07689729
0.07680685
0.07672651
0.07666181
0.0766178
0.07659897
0.07660877
0.07664918
0.07672045
0.076821
0.07694764
0.07709586
0.07726025
0.07743495
0.07761398
0.07779125
0.07796014
0.07811208
0.0782337
0.07830151
0.07827365
0.07811837
0.07717058
0.07735952
0.07743087
0.07740828
0.07733485
0.0772353
0.07712293
0.07700539
0.07688826
0.07677655
0.07667579
0.07659278
0.0765337
0.07650401
0.07650787
0.07654762
0.07662349
0.07673349
0.07687367
0.07703852
0.07722149
0.07741558
0.07761373
0.07780885
0.07799324
0.07815694
0.07828447
0.07834927
0.07830618
0.0781272
0.07712717
0.07732406
0.07740023
0.07737443
0.07728934
0.0771708
0.07703374
0.07688748
0.07673915
0.07659532
0.07646326
0.07635188
0.07626922
0.0762224
0.07621678
0.07625534
0.07633825
0.07646284
0.07662391
0.07681425
0.07702546
0.07724863
0.07747499
0.07769594
0.07790251
0.07808356
0.07822256
0.07829223
0.07824717
0.07806233
0.07704956
0.07724452
0.07731543
0.07727906
0.0771767
0.07703337
0.07686437
0.0766802
0.07648984
0.07630184
0.07612625
0.07597498
0.07585896
0.07578782
0.07576876
0.07580568
0.07589868
0.07604405
0.07623467
0.07646084
0.07671136
0.07697457
0.07723925
0.0774949
0.07773118
0.07793617
0.0780932
0.07817536
0.07813774
0.07795604
0.07695409
0.07714228
0.07720126
0.07714762
0.07702162
0.0768469
0.07663806
0.07640616
0.07616195
0.07591625
0.07568311
0.07547868
0.07531798
0.07521422
0.07517725
0.07521227
0.07531923
0.07549287
0.07572336
0.07599746
0.07630006
0.07661579
0.07693029
0.07723075
0.07750546
0.07774203
0.07792403
0.07802521
0.07800098
0.0778268
0.07684949
0.07702858
0.0770715
0.07699512
0.07683912
0.07662588
0.07636886
0.07607886
0.07576807
0.07544958
0.07514313
0.07487038
0.07465199
0.07450614
0.07444634
0.07447951
0.07460531
0.0748163
0.07509883
0.07543481
0.07580396
0.07618613
0.07656311
0.07691944
0.07724204
0.07751814
0.07773165
0.07785696
0.07784981
0.07768526
0.07674106
0.07690999
0.07693434
0.07683118
0.07663965
0.07638106
0.07606755
0.07570905
0.0753184
0.07491098
0.07451412
0.07415658
0.07386618
0.07366759
0.07357954
0.07361117
0.07376178
0.07402093
0.0743696
0.07478308
0.0752345
0.07569788
0.07615047
0.07657388
0.07695357
0.0772765
0.07752701
0.07768026
0.07769245
0.07753851
0.07663293
0.07679131
0.07679581
0.0766633
0.07643222
0.07612268
0.07574544
0.07530902
0.07482529
0.07431357
0.07381037
0.07335273
0.07297608
0.0727125
0.07258733
0.07261644
0.07279965
0.07312078
0.07355145
0.0740588
0.07460809
0.07516689
0.07570719
0.07620754
0.07665201
0.07702746
0.07731892
0.07750254
0.07753528
0.07739231
0.07652911
0.07667707
0.07666149
0.07649869
0.07622607
0.07586233
0.07541654
0.07489537
0.07430796
0.07368142
0.0730597
0.07248552
0.07200115
0.07164695
0.07146372
0.07148664
0.07171778
0.07212724
0.07266397
0.07328623
0.07395013
0.07461595
0.07525269
0.07583656
0.07635051
0.07678162
0.07711591
0.07733079
0.07738431
0.07725218
0.07643386
0.07657199
0.07653718
0.07634492
0.07603135
0.07561344
0.07509821
0.07449009
0.07379537
0.07304929
0.07230031
0.07159044
0.07095148
0.07041879
0.0700807
0.07008306
0.07043592
0.07104179
0.07173646
0.07250091
0.07329255
0.07407371
0.07481116
0.07548011
0.07606398
0.0765505
0.07692695
0.07717223
0.07724565
0.07712373
0.07635171
0.076481
0.07642892
0.07620995
0.07585883
0.07539072
0.07481039
0.07411969
0.07332226
0.07246111
0.07157833
0.07068242
0.06969411
0.0689509
0.06854358
0.06853624
0.0689371
0.06970017
0.07074841
0.0717446
0.07267965
0.07357545
0.0744096
0.07515935
0.07580849
0.07634621
0.07676129
0.07703418
0.07712546
0.07701254
0.07628637
0.07640876
0.07634257
0.0761015
0.07571909
0.07520884
0.07457335
0.07381184
0.07292677
0.07196191
0.07093204
0.06969466
0.06854012
0.0676687
0.06719388
0.06717732
0.06762752
0.06849896
0.06969413
0.0710551
0.0721569
0.07315933
0.07407722
0.07489551
0.07559989
0.07618058
0.07662784
0.07692356
0.07702949
0.0769238
0.07624241
0.0763596
0.07628329
0.07602639
0.07562145
0.07508072
0.07440515
0.07359204
0.07264225
0.0715948
0.07041795
0.06896274
0.06768147
0.06672182
0.06619806
0.06617526
0.06666244
0.06761062
0.06891632
0.07042377
0.07176295
0.07285927
0.07383995
0.07470802
0.07545218
0.07606385
0.07653416
0.0768462
0.07696251
0.07686178
0.07622192
0.07633649
0.0762549
0.07598965
0.07557283
0.07501604
0.0743195
0.07347864
0.07249391
0.07139527
0.07008488
0.06856758
0.06722496
0.0662196
0.0656701
0.06564437
0.06615168
0.06714055
0.06850367
0.07007533
0.07155526
0.07270326
0.07371712
0.07461131
0.07537634
0.07600429
0.07648675
0.07680734
0.07692905
0.07683082
0.07622644
0.07634097
0.07625931
0.07599393
0.07557691
0.07501987
0.07432304
0.07348185
0.07249677
0.07139777
0.07008698
0.06856934
0.06722643
0.06622083
0.06567115
0.06564529
0.06615252
0.06714136
0.0685045
0.07007623
0.07155625
0.07270437
0.07371836
0.07461268
0.07537782
0.07600588
0.07648841
0.07680904
0.07693074
0.07683245
0.07625596
0.07637301
0.07629647
0.07603916
0.07563364
0.07509216
0.07441572
0.07360162
0.07265081
0.0716023
0.07042425
0.06896803
0.06768589
0.06672553
0.06620121
0.06617803
0.06666497
0.06761306
0.06891885
0.07042657
0.07176597
0.07286261
0.07384366
0.07471208
0.07545656
0.07606852
0.07653903
0.07685117
0.07696744
0.07686647
0.07630893
0.07643096
0.07636437
0.07612264
0.07573926
0.07522777
0.07459083
0.07382772
0.07294095
0.07197439
0.07094289
0.06970361
0.06854759
0.06767496
0.06719922
0.067182
0.06763181
0.06850313
0.06969847
0.07105981
0.07216194
0.07316487
0.07408334
0.07490215
0.07560692
0.07618801
0.07663549
0.07693136
0.07703724
0.07693112
0.07638231
0.07651161
0.07645909
0.07623921
0.07588677
0.07541696
0.07483462
0.0741417
0.07334195
0.07247849
0.07159362
0.07069545
0.06970482
0.0689599
0.06855126
0.06854299
0.06894331
0.06970623
0.07075473
0.07175116
0.07268665
0.07358315
0.07441811
0.0751686
0.07581832
0.07635661
0.07677205
0.07704518
0.07713647
0.07702314
0.07647284
0.07661083
0.07657541
0.07638201
0.07606677
0.07564672
0.07512897
0.07451805
0.07382039
0.07307136
0.07231958
0.07160706
0.07096569
0.07043075
0.07009095
0.07009213
0.07044431
0.07104993
0.07174454
0.07250922
0.07330148
0.07408354
0.07482203
0.07549198
0.07607675
0.07656405
0.07694111
0.07718681
0.07726037
0.07713827
0.07657602
0.07672374
0.0767074
0.07654321
0.0762686
0.07590231
0.07545353
0.07492904
0.07433813
0.07370803
0.07308291
0.07250556
0.07201837
0.07166175
0.07147656
0.07149801
0.07172815
0.07213708
0.0726737
0.07329632
0.07396099
0.07462788
0.07526581
0.07585086
0.07636591
0.07679798
0.07713306
0.07734849
0.07740228
0.07727013
0.07668729
0.07684535
0.07684893
0.07671478
0.07648138
0.07616893
0.07578828
0.07534808
0.07486036
0.07434457
0.07383742
0.07337611
0.07299618
0.0727298
0.07260237
0.07262975
0.07281179
0.0731323
0.07356291
0.07407072
0.07462089
0.07518086
0.07572246
0.07622412
0.07666985
0.07704643
0.07733885
0.07752316
0.07755629
0.0774134
0.07680234
0.07697086
0.07699412
0.07688907
0.07669492
0.07643305
0.07611575
0.07575308
0.07535801
0.07494611
0.07454488
0.07418324
0.07388914
0.07368739
0.07359677
0.07362645
0.07377575
0.07403423
0.07438284
0.07479681
0.07524916
0.07571377
0.07616774
0.07659259
0.07697371
0.07729796
0.07754959
0.07770369
0.07771643
0.0775626
0.07691709
0.07709568
0.07713732
0.0770588
0.07689986
0.07668301
0.07642185
0.07612732
0.07581179
0.07548847
0.07517731
0.07490012
0.07467773
0.07452841
0.07446578
0.0744968
0.07462115
0.07483139
0.07511381
0.07545025
0.07582033
0.07620376
0.0765822
0.07694013
0.07726433
0.07754194
0.07775675
0.07788303
0.07787645
0.07771205
0.07702732
0.07721491
0.07727244
0.07721641
0.07708716
0.07690849
0.07669518
0.07645844
0.07620919
0.07595838
0.07572027
0.07551115
0.0753462
0.07523876
0.07519875
0.07523144
0.0753368
0.07550957
0.07573987
0.07601438
0.0763179
0.07663492
0.076951
0.0772532
0.0775297
0.07776798
0.07795145
0.07805372
0.07803012
0.07785611
0.07712761
0.07732188
0.07739116
0.07735216
0.07724627
0.07709869
0.07692491
0.07673561
0.07653993
0.0763466
0.07616581
0.07600966
0.07588922
0.07581421
0.07579195
0.07582639
0.07591767
0.07606205
0.0762524
0.07647894
0.07673037
0.07699494
0.07726132
0.07751887
0.07775712
0.077964
0.07812265
0.07820604
0.07816912
0.07798761
0.07720912
0.07740522
0.07747962
0.07745098
0.07736211
0.07723904
0.07709693
0.07694527
0.07679139
0.07664202
0.0765046
0.07638818
0.07630095
0.07625014
0.0762412
0.07627717
0.07635825
0.07648178
0.07664252
0.07683321
0.07704535
0.07726996
0.07749812
0.07772111
0.07792981
0.0781129
0.07825368
0.07832467
0.07828039
0.07809576
0.07725536
0.07744346
0.07751292
0.07748733
0.07740992
0.07730562
0.07718795
0.0770648
0.07694192
0.07682451
0.07671824
0.07663009
0.07656634
0.07653257
0.07653303
0.07657012
0.0766441
0.07675298
0.07689281
0.077058
0.07724194
0.07743753
0.07763757
0.07783485
0.07802149
0.07818735
0.07831676
0.07838299
0.07834074
0.078162
0.07723584
0.07739692
0.07744828
0.07741894
0.07734829
0.07725738
0.07715709
0.07705366
0.07695169
0.07685543
0.07676949
0.07669957
0.07665083
0.07662788
0.07663424
0.07667196
0.0767413
0.07684072
0.076967
0.07711557
0.07728096
0.0774572
0.07763818
0.07781767
0.07798888
0.07814305
0.07826662
0.07833593
0.07830898
0.07815399
0.07712724
0.07723656
0.07726219
0.07722634
0.07715881
0.07707561
0.07698512
0.07689239
0.07680142
0.07671612
0.07664057
0.07657977
0.07653841
0.07652066
0.07652973
0.07656749
0.07663425
0.07672865
0.07684782
0.07698766
0.07714321
0.07730903
0.07747951
0.07764897
0.07781125
0.07795876
0.07808026
0.07815665
0.07815446
0.07804823
0.1652706
0.1653538
0.1653656
0.1652941
0.1651614
0.1649877
0.1647871
0.1645706
0.1643487
0.1641332
0.1639377
0.1637773
0.163667
0.1636201
0.1636469
0.1637534
0.1639408
0.1642049
0.164537
0.1649245
0.165352
0.1658029
0.1662602
0.1667073
0.1671271
0.1675014
0.1678079
0.1680184
0.1681025
0.1680656
0.1653376
0.1654717
0.1655181
0.1654564
0.1653154
0.1651216
0.1648938
0.1646457
0.1643899
0.1641398
0.163911
0.1637207
0.1635858
0.1635212
0.1635384
0.1636441
0.1638395
0.1641197
0.1644748
0.1648907
0.16535
0.1658343
0.1663246
0.1668025
0.1672488
0.1676426
0.1679573
0.1681583
0.1682088
0.1681219
0.1653208
0.1654899
0.1655616
0.1655006
0.1653373
0.1651038
0.1648236
0.1645145
0.1641926
0.1638748
0.1635802
0.1633304
0.1631461
0.1630457
0.1630431
0.1631464
0.1633568
0.1636683
0.1640683
0.1645393
0.1650602
0.1656086
0.1661618
0.1666977
0.1671941
0.1676261
0.1679626
0.1681636
0.1681905
0.1680699
0.1652112
0.1653907
0.1654637
0.1653837
0.1651791
0.1648843
0.1645261
0.1641264
0.1637055
0.1632851
0.1628902
0.162549
0.1622885
0.1621325
0.162099
0.1621983
0.1624316
0.1627907
0.1632592
0.1638142
0.1644283
0.165073
0.1657198
0.1663419
0.1669127
0.1674038
0.167781
0.1680021
0.1680294
0.1678995
0.1650331
0.1652048
0.1652567
0.1651362
0.1648693
0.16449
0.1640271
0.1635055
0.1629502
0.1623893
0.1618561
0.1613879
0.1610209
0.160787
0.1607102
0.1608038
0.1610692
0.1614951
0.1620592
0.1627308
0.1634736
0.1642502
0.1650243
0.1657628
0.1664346
0.1670081
0.1674475
0.1677101
0.16776
0.1676386
0.1648079
0.1649604
0.1649738
0.1647935
0.1644434
0.163956
0.1633604
0.1626838
0.1619563
0.1612136
0.1604995
0.1598643
0.1593568
0.1590197
0.1588856
0.1589721
0.1592805
0.1597955
0.1604865
0.161312
0.1622234
0.1631715
0.16411
0.1649979
0.1657993
0.1664798
0.1670028
0.1673263
0.1674158
0.1673144
0.1645514
0.1646774
0.1646401
0.1643841
0.1639315
0.1633129
0.1625567
0.1616914
0.1607522
0.1597832
0.1588422
0.157996
0.1573099
0.1568415
0.1566345
0.1567126
0.1570771
0.1577067
0.1585603
0.1595813
0.1607055
0.1618682
0.1630104
0.1640822
0.1650422
0.165854
0.1664805
0.1668811
0.1670226
0.1669484
0.1642759
0.1643711
0.1642746
0.1639307
0.1633594
0.1625891
0.1616463
0.1605603
0.1593704
0.15813
0.1569149
0.1558117
0.1549065
0.1542762
0.1539792
0.1540474
0.1544826
0.1552557
0.1563108
0.1575722
0.1589552
0.1603763
0.1617615
0.1630506
0.1641968
0.1651616
0.1659085
0.1663987
0.1666007
0.1665584
0.1639927
0.1640548
0.1638944
0.1634547
0.1627532
0.1618153
0.1606651
0.1593311
0.1578561
0.1563039
0.1547709
0.1533665
0.1522009
0.151375
0.1509674
0.1510234
0.1515459
0.1524949
0.153793
0.1553401
0.1570264
0.1587464
0.1604093
0.1619442
0.1632988
0.1644334
0.165313
0.1659012
0.1661691
0.166161
0.1637141
0.1637428
0.163517
0.1629785
0.1621417
0.1610281
0.1596582
0.158059
0.1562751
0.154382
0.1524971
0.150751
0.1492798
0.1482149
0.1476671
0.1477062
0.1483383
0.1495046
0.1510932
0.152971
0.1549993
0.1570495
0.1590146
0.1608136
0.1623897
0.1637031
0.1647212
0.165411
0.1657464
0.1657733
0.1634536
0.1634503
0.1631614
0.1625269
0.1615574
0.16027
0.1586809
0.1568141
0.1547153
0.1524709
0.150214
0.1480895
0.1462512
0.1448756
0.1441351
0.1441488
0.1449295
0.1463839
0.1483309
0.1505854
0.1529824
0.1553782
0.1576534
0.1597197
0.1615175
0.1630083
0.1641627
0.1649515
0.1653524
0.1654128
0.1632253
0.1631933
0.1628476
0.1621259
0.1610352
0.159588
0.1577955
0.1556785
0.1532819
0.1506995
0.1480677
0.1455209
0.1432031
0.1414197
0.1404662
0.1404516
0.1413904
0.1431981
0.1456326
0.1483289
0.1511088
0.1538426
0.1564132
0.1587303
0.1607344
0.1623888
0.1636679
0.164547
0.165007
0.1650975
0.1630427
0.1629872
0.1625947
0.161801
0.1606096
0.1590287
0.1570654
0.1547365
0.1520848
0.1492049
0.1462173
0.1432034
0.1404525
0.1384055
0.1372982
0.1372619
0.1383142
0.1403553
0.1431675
0.1463672
0.1495219
0.1525589
0.1553842
0.1579144
0.1600921
0.1618834
0.1632664
0.1642202
0.164729
0.1648442
0.162918
0.1628457
0.1624197
0.1615744
0.1603107
0.1586335
0.1565467
0.1540637
0.1512244
0.1481189
0.1448429
0.1414361
0.1384302
0.1361912
0.1349743
0.1349226
0.1360557
0.1382657
0.1413219
0.1448875
0.1483608
0.1516336
0.1546478
0.1573331
0.1596363
0.1615263
0.162984
0.1639913
0.1645348
0.1646673
0.1628598
0.1627786
0.1623352
0.1614627
0.1601609
0.1584331
0.156281
0.1537165
0.1507768
0.1475468
0.1441025
0.1405063
0.1373624
0.1350218
0.1337471
0.1336873
0.1348631
0.1371625
0.1403482
0.1440836
0.1477476
0.1511502
0.1542651
0.1570321
0.1594012
0.161343
0.1628398
0.1638751
0.1644367
0.1645783
0.1628726
0.1627913
0.1623475
0.1614746
0.1601722
0.1584436
0.1562907
0.1537252
0.1507845
0.1475535
0.1441082
0.1405111
0.1373664
0.1350252
0.13375
0.1336899
0.1348656
0.1371649
0.1403506
0.1440862
0.1477503
0.1511532
0.1542684
0.1570357
0.1594051
0.1613471
0.1628441
0.1638795
0.1644412
0.1645827
0.1629564
0.1628836
0.1624568
0.1616101
0.1603444
0.158665
0.1565755
0.1540898
0.1512474
0.148139
0.1448601
0.1414505
0.1384424
0.1362014
0.1349832
0.1349304
0.136063
0.1382729
0.1413292
0.1448951
0.1483689
0.1516425
0.1546576
0.1573437
0.1596477
0.1615385
0.1629967
0.1640044
0.164548
0.1646803
0.1631064
0.1630501
0.1626561
0.1618601
0.1606656
0.159081
0.1571134
0.1547798
0.1521232
0.1492385
0.1462461
0.1432277
0.140473
0.1384229
0.1373132
0.1372752
0.1383265
0.1403673
0.1431797
0.1463799
0.1495355
0.1525736
0.1554004
0.1579319
0.1601109
0.1619035
0.1632874
0.1642418
0.1647508
0.1648656
0.1633134
0.1632805
0.1629328
0.162208
0.1611131
0.1596606
0.1578622
0.1557387
0.1533355
0.1507465
0.1481083
0.1455555
0.1432322
0.1414446
0.1404876
0.1404706
0.141408
0.1432151
0.1456497
0.1483466
0.1511277
0.1538631
0.1564356
0.1587548
0.1607607
0.1624168
0.1636972
0.1645772
0.1650376
0.1651279
0.1635658
0.1635613
0.1632699
0.1626314
0.1616565
0.1603625
0.1587659
0.156891
0.1547839
0.1525311
0.1502662
0.1481343
0.1462894
0.1449082
0.1441633
0.1441739
0.1449525
0.1464059
0.1483528
0.150608
0.1530065
0.1554043
0.157682
0.1597508
0.1615512
0.1630442
0.1642004
0.1649906
0.1653921
0.1654526
0.1638495
0.1638769
0.1636479
0.1631046
0.1622613
0.1611398
0.159761
0.1581521
0.1563582
0.1544551
0.1525606
0.1508057
0.1493267
0.1482551
0.147702
0.1477371
0.1483666
0.1495315
0.1511198
0.1529984
0.1550285
0.1570811
0.1590491
0.1608512
0.1624304
0.1637466
0.164767
0.1654585
0.165795
0.1658222
0.1641504
0.1642109
0.1640468
0.1636014
0.1628923
0.1619454
0.1607848
0.1594397
0.1579532
0.1563895
0.1548454
0.1534308
0.1522562
0.1514225
0.1510086
0.1510599
0.1515792
0.1525264
0.1538241
0.1553721
0.1570604
0.1587832
0.1604495
0.161988
0.1633461
0.1644841
0.1653665
0.165957
0.1662262
0.1662188
0.1644547
0.164548
0.1644473
0.1640969
0.1635169
0.1627363
0.1617819
0.1606834
0.1594805
0.1582274
0.1569999
0.1558852
0.1549698
0.1543307
0.1540265
0.1540893
0.1545207
0.1552918
0.1563463
0.1576087
0.1589939
0.160418
0.161807
0.1631002
0.1642505
0.1652192
0.1659695
0.1664624
0.1666661
0.1666246
0.1647501
0.1648738
0.1648316
0.1645682
0.1641059
0.1634759
0.1627067
0.1618278
0.1608744
0.1598913
0.1589368
0.1580781
0.1573807
0.1569026
0.1566877
0.1567596
0.1571198
0.1577471
0.1586
0.1596219
0.1607484
0.1619144
0.1630607
0.1641371
0.1651019
0.1659181
0.1665486
0.1669522
0.1670957
0.1670225
0.1650246
0.1651744
0.1651824
0.1649939
0.1646331
0.1641331
0.1635234
0.1628319
0.1620892
0.1613313
0.1606026
0.159954
0.1594342
0.1590867
0.1589439
0.1590237
0.1593274
0.1598396
0.1605299
0.1613562
0.1622701
0.1632218
0.1641648
0.1650577
0.1658643
0.16655
0.1670774
0.1674044
0.1674962
0.1673958
0.1652656
0.1654345
0.1654803
0.1653508
0.1650723
0.1646793
0.1642012
0.1636636
0.163092
0.1625151
0.1619664
0.1614839
0.1611041
0.160859
0.1607729
0.1608593
0.1611195
0.1615424
0.1621056
0.162778
0.1635233
0.1643037
0.1650828
0.1658268
0.1665043
0.1670835
0.1675278
0.1677944
0.1678469
0.1677266
0.1654572
0.1656335
0.1657
0.1656101
0.165393
0.1650835
0.1647092
0.1642926
0.1638545
0.1634172
0.1630062
0.16265
0.162376
0.1622083
0.162165
0.1622567
0.1624846
0.1628404
0.1633079
0.1638637
0.1644805
0.1651292
0.1657813
0.1664092
0.1669863
0.1674835
0.1678661
0.1680916
0.1681217
0.1679931
0.1655771
0.1657427
0.1658075
0.1657361
0.1655595
0.1653105
0.1650134
0.1646866
0.1643469
0.1640115
0.1637002
0.1634349
0.1632367
0.1631241
0.1631115
0.1632069
0.1634116
0.1637196
0.1641185
0.1645903
0.165114
0.1656666
0.1662253
0.1667676
0.1672706
0.1677091
0.1680513
0.168257
0.1682869
0.1681678
0.1656009
0.1657314
0.1657704
0.1656978
0.165543
0.1653332
0.1650879
0.1648215
0.1645473
0.1642793
0.1640334
0.1638273
0.1636782
0.1636012
0.1636081
0.1637057
0.1638952
0.164172
0.1645259
0.1649426
0.1654047
0.1658934
0.1663894
0.1668738
0.167327
0.1677275
0.1680483
0.1682541
0.1683079