/*--------------------------------*- C++ -*----------------------------------*\
| =========                 |                                                 |
| \\      /  F ield         | OpenFOAM: The Open Source CFD Toolbox           |
|  \\    /   O peration     | Version:  2506                                  |
|   \\  /    A nd           | Website:  www.openfoam.com                      |
|    \\/     M anipulation  |                                                 |
\*---------------------------------------------------------------------------*/
FoamFile
{
    version     2.0;
    format      ascii;
    arch        "LSB;label=32;scalar=64";
    class       surfaceScalarField;
    location    "2000/air";
    object      phi;
}
// * * * * * * * * * * * * * * * * * * * * * * * * * * * * * * * * * * * * * //

dimensions      [1 0 -1 0 0 0 0];

oriented        oriented;

internalField   nonuniform List<scalar> 
98844
(
-0.005096291
-0.005873435
-0.005141861
-0.003551659
-0.007220538
-0.00469376
-0.002557135
-0.008281042
-0.00432338
-0.001861781
-0.009033415
-0.00407606
-0.001334616
-0.009551509
-0.003905484
-0.0009110091
-0.009902894
-0.003783538
-0.0005569752
-0.01013647
-0.003694279
-0.0002536883
-0.01028623
-0.003627493
9.193477e-06
-0.01037674
-0.003576421
0.0002400419
-0.01042787
-0.003536753
0.0004454232
-0.01045312
-0.003506574
0.0006290221
-0.01046313
-0.003484597
0.0007952848
-0.01046749
-0.003470167
0.0009492305
-0.01047331
-0.003463061
0.001096437
-0.01048531
-0.00346326
0.001242904
-0.01050604
-0.003470918
0.00139483
-0.01053558
-0.003486193
0.001558367
-0.01057146
-0.003509231
0.00173946
-0.01060904
-0.003540292
0.00194383
-0.01064123
-0.003579783
0.002177241
-0.01065855
-0.003628406
0.002446091
-0.01064919
-0.003687515
0.002758559
-0.01059819
-0.003759333
0.003126599
-0.01048631
-0.003847476
0.003569659
-0.01028824
-0.003957902
0.004121948
-0.009968625
-0.004100318
0.004848542
-0.009476313
-0.004290584
0.005883156
-0.00873948
-0.00455786
0.007488818
-0.007676512
-0.004952546
-0.006300832
-0.00542755
-0.00645729
-0.004373962
-0.004695601
-0.00441496
-0.005223293
-0.004039576
-0.003098259
-0.006011952
-0.003585792
-0.002192522
-0.006629983
-0.003309169
-0.001528754
-0.007084941
-0.003130335
-0.001015493
-0.007406786
-0.00300937
-0.000602103
-0.007625346
-0.002924516
-0.0002599584
-0.007765533
-0.002862838
2.773483e-05
-0.007847867
-0.00281657
0.0002714441
-0.007889773
-0.00278181
0.0004790956
-0.007904573
-0.002756204
0.0006572382
-0.007903713
-0.002737556
0.0008122117
-0.007897207
-0.002725259
0.0009508545
-0.007892811
-0.002719147
0.001080642
-0.007895841
-0.002719256
0.001209563
-0.0079092
-0.002725765
0.001345837
-0.007933015
-0.002738841
0.001497603
-0.00796461
-0.00275862
0.001672716
-0.007998816
-0.002785335
0.001878792
-0.008027951
-0.002819357
0.002123627
-0.008041992
-0.002861396
0.002416167
-0.00802887
-0.00291286
0.002768259
-0.007974088
-0.002976193
0.003197727
-0.007860223
-0.00305556
0.003733905
-0.007666217
-0.0031582
0.004427992
-0.007365964
-0.003296748
0.005372578
-0.006927687
-0.003493212
0.006740378
-0.006318198
-0.003789083
0.008857765
-0.005524956
-0.004268945
-0.004652729
-0.004957784
-0.007527473
-0.003415966
-0.00433109
-0.005215611
-0.003943523
-0.003591634
-0.00366168
-0.004493764
-0.003072119
-0.002570988
-0.004961681
-0.002758995
-0.001769785
-0.005324939
-0.002561205
-0.001156396
-0.005589072
-0.002431103
-0.0006711344
-0.005768455
-0.002342153
-0.0002788986
-0.005879103
-0.002278666
4.134018e-05
-0.005936726
-0.002231381
0.0003031595
-0.005955877
-0.002195717
0.0005169782
-0.005949368
-0.002169025
0.0006912679
-0.005928982
-0.002149021
0.000834473
-0.005905259
-0.002135154
0.0009557624
-0.005886715
-0.002127386
0.001065194
-0.005879384
-0.00212589
0.001173527
-0.005886618
-0.002130917
0.001291804
-0.005908649
-0.002142644
0.001430885
-0.005942542
-0.002161149
0.001601153
-0.005982548
-0.002186536
0.001812551
-0.006020301
-0.002219049
0.002075142
-0.006045254
-0.00225933
0.002400367
-0.006045241
-0.002308854
0.002803289
-0.006006607
-0.002370403
0.003306304
-0.005914309
-0.00244893
0.003945455
-0.005752154
-0.002553215
0.004781311
-0.005503064
-0.002698757
0.005917193
-0.005151048
-0.002912522
0.007531329
-0.004688234
-0.003244101
0.009930726
-0.004133986
-0.003790368
-0.003591147
-0.004564169
-0.008286454
-0.002750325
-0.004087061
-0.005843285
-0.003068431
-0.003318262
-0.004141149
-0.003433574
-0.002762327
-0.002913993
-0.003764189
-0.002424649
-0.001998209
-0.004029747
-0.002210976
-0.001293191
-0.004223382
-0.002070709
-0.0007372535
-0.004349372
-0.00197502
-0.0002929526
-0.004416866
-0.001906538
6.266446e-05
-0.004437394
-0.001854949
0.0003450199
-0.004423082
-0.001815151
0.0005662797
-0.004386232
-0.001784396
0.0007365576
-0.004338788
-0.001760472
0.0008663925
-0.004292074
-0.00174302
0.0009675571
-0.004255598
-0.001732282
0.001053168
-0.004236311
-0.001728684
0.001137364
-0.00423818
-0.001732635
0.001234633
-0.004261585
-0.001744334
0.001359093
-0.004303262
-0.001763741
0.00152399
-0.004356718
-0.001790727
0.00174166
-0.004412719
-0.001825254
0.002024143
-0.004459998
-0.00186774
0.002384644
-0.004486165
-0.001919578
0.002840069
-0.004478301
-0.001983732
0.003415011
-0.004423544
-0.002065708
0.004148081
-0.004309875
-0.002175349
0.005102068
-0.004127179
-0.002329872
0.006379522
-0.003869875
-0.002558629
0.008148841
-0.003543254
-0.002914299
0.01068836
-0.003176338
-0.003497165
-0.002850281
-0.004300249
-0.008810308
-0.002248915
-0.003917515
-0.006306778
-0.002431307
-0.003140654
-0.00451496
-0.002659414
-0.00256598
-0.003191251
-0.002875363
-0.002212535
-0.002184936
-0.003050009
-0.001986054
-0.001401209
-0.003171623
-0.001835487
-0.0007805469
-0.003238851
-0.001731184
-0.0002862189
-0.003256297
-0.001654897
0.0001044767
-0.003232383
-0.001595707
0.0004073427
-0.00317769
-0.001548259
0.000635174
-0.003104105
-0.001509958
0.0007992979
-0.003024028
-0.001478884
0.0009122317
-0.002949884
-0.001455125
0.0009885552
-0.002892473
-0.00143945
0.001044882
-0.002859881
-0.001432758
0.001099359
-0.002856919
-0.001435738
0.00117058
-0.002884168
-0.001448638
0.001276445
-0.002937913
-0.001471215
0.001433332
-0.003010693
-0.001502913
0.001655894
-0.00309212
-0.001543162
0.001957665
-0.003169892
-0.001591877
0.002352653
-0.003231039
-0.001650115
0.002858117
-0.003263
-0.001720766
0.003498646
-0.003254478
-0.001809596
0.004312276
-0.003196467
-0.00192704
0.005359737
-0.003083456
-0.002091185
0.006737827
-0.002915752
-0.002332214
0.008601938
-0.002704069
-0.002703297
0.01120731
-0.002476969
-0.003304744
-0.002292582
-0.0041152
-0.009167133
-0.001848833
-0.00379486
-0.006636708
-0.001942323
-0.00301941
-0.004789226
-0.002070937
-0.00243596
-0.003396347
-0.00219565
-0.002072591
-0.002318609
-0.002291809
-0.001835938
-0.001468115
-0.002346723
-0.001675394
-0.0007894227
-0.002356346
-0.001561197
-0.0002484325
-0.0023226
-0.001474688
0.0001755042
-0.002251641
-0.001404679
0.0004974283
-0.002153763
-0.001345852
0.000729647
-0.00204026
-0.001296065
0.0008840976
-0.001924494
-0.001253985
0.0009750996
-0.001820364
-0.001220523
0.001020232
-0.001740255
-0.001197351
0.001040004
-0.001693495
-0.001186159
0.001057322
-0.001686139
-0.001188098
0.001095671
-0.001719017
-0.0012035
0.001177322
-0.001787778
-0.001231786
0.001322025
-0.001883691
-0.001271705
0.001546659
-0.001994992
-0.001321763
0.001865701
-0.002107957
-0.001380978
0.002292969
-0.002208602
-0.001449707
0.002844714
-0.002284287
-0.001530459
0.003543823
-0.002324625
-0.001628962
0.004425756
-0.002322511
-0.001755889
0.005547124
-0.002275154
-0.001929671
0.006997684
-0.002185733
-0.002180578
0.008921209
-0.002066299
-0.002561298
0.01155688
-0.001941438
-0.003171207
-0.001850599
-0.003979216
-0.009405785
-0.001517032
-0.003703636
-0.006863083
-0.001551807
-0.002933218
-0.004978597
-0.00160924
-0.002346183
-0.003533867
-0.001663932
-0.001976449
-0.00239821
-0.001696014
-0.001731453
-0.001490245
-0.00169352
-0.001561169
-0.0007592683
-0.001651395
-0.001435929
-0.0001748393
-0.001570183
-0.001336847
0.000280283
-0.001454109
-0.001252655
0.0006193909
-0.001314475
-0.001178397
0.0008532716
-0.001161545
-0.001112596
0.0009937872
-0.001010093
-0.001054917
0.001056849
-0.0008758607
-0.001007565
0.001063498
-0.0007732791
-0.0009736256
0.001038163
-0.0007120487
-0.000956111
0.001009598
-0.0007007709
-0.0009568032
0.001007067
-0.000740304
-0.0009761832
0.001057877
-0.0008254063
-0.001013182
0.00118537
-0.0009457251
-0.00106546
0.001408646
-0.001088211
-0.001130057
0.001742573
-0.001237335
-0.00120455
0.002199728
-0.001377592
-0.001288166
0.002794212
-0.001496087
-0.001382684
0.003545962
-0.001582828
-0.001493549
0.004486703
-0.0016318
-0.001631453
0.005668163
-0.001641679
-0.001814935
0.007173313
-0.001616784
-0.002074101
0.009136666
-0.001568653
-0.002460999
0.0117867
-0.001517346
-0.003074133
-0.001488636
-0.003875925
-0.009559932
-0.00123485
-0.00363413
-0.007010675
-0.001231455
-0.002869611
-0.005099066
-0.001239408
-0.002281441
-0.003613028
-0.001242725
-0.001907245
-0.002428489
-0.001225654
-0.0016549
-0.001469749
-0.001177491
-0.00147477
-0.0006909385
-0.001092993
-0.001337212
-6.580117e-05
-0.0009723011
-0.001223019
0.0004191245
-0.000818064
-0.001120971
0.0007736064
-0.0006420475
-0.001026909
0.001006512
-0.0004545558
-0.0009398953
0.001128796
-0.0002711577
-0.0008612187
0.001157349
-0.0001094949
-0.0007949185
0.001117983
1.206371e-05
-0.0007459772
0.001038707
8.698758e-05
-0.0007197612
0.0009555291
0.0001012084
-0.0007188012
0.0009038683
5.535772e-05
-0.0007440011
0.0009166985
-4.479907e-05
-0.0007934378
0.001021786
-0.0001877554
-0.0008630575
0.001240359
-0.0003590641
-0.0009477212
0.001587102
-0.0005411231
-0.001042955
0.002072132
-0.0007163061
-0.001146316
0.002706581
-0.000872014
-0.001258523
0.003506512
-0.0009982021
-0.001384558
0.00449928
-0.001089508
-0.00153506
0.005731603
-0.00114536
-0.001728644
0.007280442
-0.001170328
-0.001995296
0.009273156
-0.001174765
-0.002386602
0.01193107
-0.001174711
-0.003000549
-0.001186414
-0.003795218
-0.009653571
-0.0009910631
-0.003580158
-0.007099413
-0.0009643517
-0.002821262
-0.00516585
-0.000940036
-0.002232936
-0.003644963
-0.0009084493
-0.001855163
-0.002417607
-0.0008571303
-0.00159588
-0.001412829
-0.000776717
-0.001405553
-0.0005893485
-0.0006621229
-0.001254352
7.415426e-05
-0.0005132213
-0.001122583
0.0005875434
-0.000332546
-0.0009989078
0.0009558396
-0.0001301316
-0.0008802127
0.001185827
8.170671e-05
-0.0007662498
0.001287347
0.00028749
-0.0006601684
0.001277636
0.0004687952
-0.000568579
0.001182217
0.0006074805
-0.0004999976
0.001041092
0.0006896243
-0.0004615114
0.0008943566
0.0007062604
-0.0004583168
0.0007851411
0.000655986
-0.0004914126
0.0007536538
0.0005444281
-0.0005577399
0.0008331408
0.0003836478
-0.0006508905
0.001045112
0.0001913588
-0.0007623942
0.001402999
-1.451103e-05
-0.0008844998
0.00191425
-0.0002145771
-0.001012981
0.002586585
-0.0003973864
-0.001146963
0.003431394
-0.0005519928
-0.001291019
0.004471353
-0.0006736548
-0.001455812
0.005748364
-0.0007622104
-0.001660162
0.007334228
-0.0008220681
-0.001934125
0.009350815
-0.000862236
-0.002329118
0.01201456
-0.0008954606
-0.002942997
-0.0009315764
-0.003730875
-0.009704718
-0.000778305
-0.003537789
-0.007145676
-0.0007395923
-0.002783802
-0.005193043
-0.0006971057
-0.002195564
-0.00364164
-0.0006452938
-0.001814559
-0.002375986
-0.0005743081
-0.001548477
-0.00132899
-0.0004761164
-0.001347597
-0.0004635151
-0.00034595
-0.001181648
0.0002361082
-0.0001827644
-0.001030081
0.0007769124
7.994757e-06
-0.0008813455
0.001158543
0.0002220165
-0.0007337787
0.001383461
0.000444204
-0.0005874154
0.001460082
0.0006591474
-0.000448279
0.001406829
0.0008481733
-0.0003261243
0.001254313
0.0009934341
-0.0002334372
0.001045273
0.001079449
-0.0001807838
0.0008293916
0.001097128
-0.0001749861
0.0006581897
0.001044803
-0.0002176144
0.0005789158
0.000927921
-0.0003042187
0.0006281848
0.0007604421
-0.0004260632
0.0008304278
0.0005591367
-0.000570021
0.00119724
0.0003435042
-0.0007248273
0.001734594
0.0001312799
-0.0008832119
0.002443191
-6.340141e-05
-0.001042583
0.003330078
-0.0002316111
-0.00120727
0.004413357
-0.0003690986
-0.001387836
0.0057305
-0.0004757444
-0.001603609
0.007348966
-0.0005555588
-0.001884977
0.009386415
-0.0006161931
-0.002283493
0.01205588
-0.0006677142
-0.00289721
-0.0007157626
-0.003679175
-0.009727143
-0.0005910914
-0.003504373
-0.007162974
-0.000549195
-0.002754567
-0.005193401
-0.0005003188
-0.00216636
-0.003615111
-0.0004413038
-0.001782281
-0.002315346
-0.0003645041
-0.00150957
-0.001230118
-0.0002632594
-0.001298085
-0.0003258325
-0.0001333408
-0.001116896
0.000408506
2.698669e-05
-0.0009440901
0.0009731585
0.0002122599
-0.0007689179
0.00136716
0.0004176165
-0.0005896011
0.001587371
0.0006315103
-0.0004075172
0.001639181
0.0008382471
-0.0002309092
0.001542055
0.001020873
-7.5573e-05
0.001329588
0.001159998
4.590383e-05
0.001050422
0.001242066
0.0001165493
0.0007630609
0.001259211
0.0001252801
0.0005267712
0.001209466
7.162723e-05
0.0003985916
0.001098342
-4.224054e-05
0.0004170309
0.0009360825
-0.0001940794
0.0006094771
0.0007418422
-0.0003751514
0.0009859811
0.0005336841
-0.000566684
0.001546594
0.0003284334
-0.0007577673
0.00228882
0.0001391467
-0.0009447747
0.003214626
-2.604429e-05
-0.001131373
0.00433728
-0.0001631315
-0.001328622
0.00569037
-0.0002727146
-0.001556121
0.007337787
-0.0003580567
-0.00184492
0.009393982
-0.0004254114
-0.002246978
0.0120696
-0.0004825448
-0.002860785
-0.0005324254
-0.003637948
-0.009731717
-0.0004235647
-0.003477395
-0.007162532
-0.0003864641
-0.002731917
-0.005178271
-0.0003408921
-0.002143688
-0.003576951
-0.0002858712
-0.001756753
-0.002247827
-0.0002157598
-0.001477869
-0.001129362
-0.0001253876
-0.001256338
-0.000190791
-1.151983e-05
-0.001060393
0.0005736562
0.000129442
-0.000866903
0.001161946
0.0002893225
-0.0006653525
0.001566832
0.000466865
-0.0004541341
0.001781828
0.0006519321
-0.0002354174
0.001811085
0.0008318546
-2.286397e-05
0.001670341
0.0009881046
0.0001735138
0.001400856
0.001108697
0.0003207871
0.001055979
0.001180409
0.0004065347
0.0007011047
0.001195439
0.0004186471
0.0004041498
0.001152117
0.0003543052
0.0002260172
0.001055219
0.0002212563
0.0002158345
0.0009159995
3.026637e-05
0.0003988227
0.0007467471
-0.0001878928
0.0007835381
0.000566085
-0.0004171163
0.001365989
0.0003878859
-0.0006419038
0.002138626
0.0002231697
-0.0008566604
0.003098558
7.873657e-05
-0.001064714
0.004255738
-4.226743e-05
-0.001278045
0.005640032
-0.0001401322
-0.001516877
0.007312521
-0.0002177685
-0.001812779
0.009385282
-0.0002798639
-0.002218309
0.01206731
-0.0003320344
-0.002832535
-0.0003754926
-0.003606119
-0.009727812
-0.0002732134
-0.003459681
-0.007153771
-0.0002450888
-0.002715418
-0.005157525
-0.0002102787
-0.00212686
-0.00353773
-0.0001682321
-0.001737435
-0.00218502
-0.0001151898
-0.001453281
-0.001039676
-4.765642e-05
-0.001223076
-7.331401e-05
3.648572e-05
-0.001014369
0.0007169148
0.0001419298
-0.0008027171
0.001324405
0.0002593804
-0.0005775481
0.001738341
0.000390346
-0.0003374173
0.001949743
0.0005270795
-8.654816e-05
0.001956865
0.0006587311
0.0001660022
0.00178109
0.000774881
0.0003889994
0.001462596
0.0008641865
0.0005630069
0.001060817
0.0009173744
0.0006648154
0.0006476375
0.0009285524
0.0006800681
0.0002980822
0.0008963988
0.0006052751
7.965269e-05
0.0008245148
0.000449135
4.261115e-05
0.0007207368
0.0002323051
0.0002177096
0.0005976171
-2.596797e-05
0.0006091334
0.0004623179
-0.0002876566
0.00120985
0.0003302523
-0.0005430837
0.002007715
0.0002082082
-0.0007829034
0.002996026
0.0001008447
-0.00101042
0.004181197
1.032437e-05
-0.001237763
0.005590733
-6.316745e-05
-0.001486502
0.00728362
-0.0001220006
-0.001788656
0.009370241
-0.0001691423
-0.002197344
0.01205863
-0.0002081627
-0.00281226
-0.0002386918
-0.003583639
-0.009720794
-0.0001327525
-0.003445509
-0.007143582
-0.0001182035
-0.002704099
-0.005138964
-9.939882e-05
-0.002115499
-0.00350622
-7.668938e-05
-0.001724288
-0.002136938
-4.818243e-05
-0.00143629
-0.0009729483
-1.196148e-05
-0.001199686
1.171069e-05
3.322043e-05
-0.0009813946
0.000822145
8.775736e-05
-0.0007562624
0.001443718
0.0001509773
-0.0005131698
0.001864448
0.0002207008
-0.0002510846
0.002072497
0.0002939678
2.506352e-05
0.002064494
0.0003633182
0.0003034165
0.00186246
0.0004249779
0.0005519383
0.00150801
0.0004725363
0.0007461021
0.001064251
0.0005008549
0.0008602814
0.0006080433
0.0005067299
0.0008780322
0.0002197566
0.0004894247
0.0007952626
-2.837131e-05
0.0004508932
0.0006217512
-8.322937e-05
0.0003954766
0.0003801194
8.399694e-05
0.0003295701
0.0001008213
0.0004810213
0.0002571454
-0.0001918518
0.00109481
0.0001868251
-0.0004703615
0.001910705
0.0001216771
-0.0007293642
0.00291921
6.426018e-05
-0.0009719213
0.004124463
1.575008e-05
-0.001210679
0.005551869
-2.371204e-05
-0.001466863
0.007259444
-5.52963e-05
-0.00177428
0.009356411
-8.058924e-05
-0.002185522
0.01205073
-0.0001012776
-0.002801208
-0.0001169231
-0.003572022
-0.009715751
1.193188e-06
-0.003438943
-0.007136966
1.251582e-06
-0.002698241
-0.005128096
1.308001e-06
-0.002109578
-0.003488656
1.328466e-06
-0.001717459
-0.002110665
1.312888e-06
-0.001427488
-0.0009362456
1.265863e-06
-0.001187647
6.018807e-05
1.205512e-06
-0.0009644197
0.0008781985
1.128377e-06
-0.000731382
0.001506863
1.063149e-06
-0.0004787502
0.001931543
1.004904e-06
-0.0002049841
0.002136639
9.391058e-07
8.793323e-05
0.00212152
8.313537e-07
0.0003776076
0.001905571
6.864887e-07
0.0006402417
0.001532033
5.053766e-07
0.0008455712
0.001065956
2.828965e-07
0.000966652
0.0005868562
6.629307e-09
0.0009858249
0.0001779464
-3.052804e-07
0.0008986418
-8.592948e-05
-6.655307e-07
0.0007154362
-0.0001500356
-1.065566e-06
0.0004606494
1.399164e-05
-1.482119e-06
0.0001670257
0.0004131803
-1.912597e-06
-0.0001401304
0.001033722
-2.350174e-06
-0.0004313663
0.001859096
-2.81101e-06
-0.0007008868
0.002878182
-3.295755e-06
-0.0009515303
0.004093968
-3.75703e-06
-0.00119628
0.005530718
-4.093817e-06
-0.001456369
0.007245971
-4.269364e-06
-0.001766282
0.009348419
-4.166663e-06
-0.002178871
0.01204592
-3.663099e-06
-0.002795114
-2.728374e-06
-0.003566084
-0.009715571
0.0001350944
-0.003438834
-0.007136832
0.0001207034
-0.002698193
-0.005127989
0.0001020179
-0.002109554
-0.003488564
7.934814e-05
-0.001717445
-0.002110581
5.080855e-05
-0.001427481
-0.0009361555
1.448575e-05
-0.001187646
6.028593e-05
-3.082399e-05
-0.000964413
0.0008783155
-8.552441e-05
-0.0007313774
0.001507001
-0.0001488823
-0.0004787401
0.001931691
-0.0002187303
-0.0002049552
0.002136775
-0.0002921325
8.798822e-05
0.002121646
-0.000361725
0.000377687
0.001905689
-0.0004236956
0.000640341
0.001532136
-0.0004716273
0.0008456869
0.001066039
-0.0005003933
0.0009667756
0.0005869065
-0.0005068034
0.0009859451
0.0001779693
-0.0004901166
0.0008987506
-8.592823e-05
-0.0004522872
0.0007155207
-0.0001500517
-0.0003976397
0.0004606987
1.396347e-05
-0.0003325333
0.0001670365
0.0004131354
-0.0002609211
-0.0001401634
0.001033649
-0.0001914355
-0.0004314289
0.001858998
-0.0001271777
-0.0007009822
0.002878098
-7.072109e-05
-0.0009516753
0.004093977
-2.315161e-05
-0.001196486
0.005530867
1.562153e-05
-0.001456606
0.007246368
4.682407e-05
-0.001766596
0.00934918
7.231008e-05
-0.00217929
0.01204719
9.403431e-05
-0.00279571
0.0001117319
-0.003567021
-0.009720119
0.0002754712
-0.003445033
-0.007143154
0.0002476742
-0.002703938
-0.005138637
0.0002129207
-0.002115421
-0.003505943
0.000170894
-0.001724242
-0.002136685
0.0001178098
-0.00143626
-0.0009726907
5.016571e-05
-0.001199676
1.199915e-05
-3.413755e-05
-0.0009813774
0.0008224811
-0.0001397521
-0.0007562549
0.001444116
-0.0002573675
-0.0005131501
0.001864877
-0.0003884847
-0.0002510061
0.002072869
-0.0005253591
2.523439e-05
0.00206484
-0.0006573322
0.0003036381
0.001862786
-0.0007738462
0.0005522056
0.0015083
-0.000863549
0.0007464098
0.001064481
-0.0009171866
0.0008606137
0.000608199
-0.0009288801
0.0008783612
0.0002198386
-0.0008973097
0.0007955555
-2.835085e-05
-0.0008260695
0.0006219732
-8.326199e-05
-0.0007229729
0.0003802453
8.393069e-05
-0.0006005561
0.0001008304
0.0004809055
-0.0004659455
-0.0001919504
0.001094604
-0.0003345874
-0.0004705465
0.001910398
-0.0002133086
-0.000729664
0.002918931
-0.000106818
-0.0009724373
0.004124472
-1.722448e-05
-0.001211469
0.005552294
5.560305e-05
-0.001467805
0.007260628
0.0001139804
-0.001775491
0.009358748
0.0001612537
-0.002187065
0.01205485
0.0002012353
-0.002803309
0.0002342062
-0.003575353
-0.009726653
0.0004270972
-0.00345776
-0.007153091
0.0003891847
-0.002715074
-0.005157001
0.0003435615
-0.002126733
-0.003537284
0.0002885307
-0.001737356
-0.002184616
0.0002183644
-0.001453224
-0.001039284
0.0001278766
-0.001223044
-7.285939e-05
1.379194e-05
-0.001014355
0.0007174424
-0.0001273419
-0.0008027128
0.001325041
-0.0002874505
-0.0005775161
0.001739042
-0.000465197
-0.0003372894
0.001950269
-0.0006504086
-8.617631e-05
0.001957362
-0.0008307717
0.000166347
0.001781581
-0.0009874284
0.0003893636
0.001463051
-0.001108429
0.0005634126
0.001061196
-0.001180582
0.0006652517
0.0006479164
-0.001196097
0.0006804983
0.0002982597
-0.0011533
0.0006056481
7.97478e-05
-0.001056958
0.0004494012
4.264287e-05
-0.0009183135
0.0002324462
0.0002177109
-0.0007495939
-2.602985e-05
0.0006090544
-0.000569452
-0.000287837
0.001209607
-0.0003917471
-0.0005433934
0.002007246
-0.0002274952
-0.0007834528
0.002995525
-8.348374e-05
-0.001011615
0.004181186
3.715395e-05
-0.00124004
0.005591321
0.0001347217
-0.001489255
0.007285498
0.0002122197
-0.001792417
0.009374097
0.0002743773
-0.002201724
0.01206596
0.0003268495
-0.00281748
0.0003708189
-0.003591043
-0.009731193
0.0005935817
-0.003478581
-0.007161865
0.0005518235
-0.002731969
-0.005177628
0.000502947
-0.002143623
-0.003576364
0.0004439273
-0.001756663
-0.002247288
0.0003670713
-0.001477784
-0.001128829
0.0002656998
-0.001256284
-0.0001902236
0.0001355735
-0.001060388
0.0005743169
-2.497012e-05
-0.0008669134
0.001162775
-0.0002105859
-0.0006653231
0.001567823
-0.000416326
-0.0004539202
0.001782369
-0.0006307269
-0.0002342283
0.001811659
-0.0008376786
-2.238228e-05
0.001670959
-0.001020609
0.0001738804
0.001401464
-0.001160107
0.0003211741
0.001056518
-0.001242581
0.0004069457
0.0007015422
-0.001260165
0.0004190449
0.0004044885
-0.00121088
0.0003546351
0.0002262691
-0.001100209
0.0002214716
0.0002160683
-0.0009383628
3.02505e-05
0.0003990385
-0.0007445166
-0.0001880474
0.0007836969
-0.0005367133
-0.0004173975
0.001366005
-0.0003317538
-0.000642302
0.002138444
-0.0001426499
-0.0008572848
0.003098376
2.255019e-05
-0.001065967
0.00425613
0.0001597841
-0.001280385
0.005641137
0.0002694602
-0.001519746
0.00731507
0.0003549764
-0.001816692
0.009390001
0.0004223314
-0.002222886
0.01207571
0.0004791305
-0.002837993
0.0005275955
-0.003613763
-0.009726367
0.0007808638
-0.003504568
-0.007162139
0.0007421421
-0.002754548
-0.005192605
0.0006996847
-0.002166274
-0.003614387
0.0006478685
-0.00178216
-0.002314693
0.0005768257
-0.001509451
-0.001229506
0.0004785104
-0.001297998
-0.0003252186
0.0003481493
-0.001116865
0.0004092127
0.0001847013
-0.000944104
0.0009739552
-6.384809e-06
-0.0007689446
0.001368044
-0.0002208208
-0.0005895947
0.001588117
-0.000443467
-0.0004073334
0.001639938
-0.0006587304
-0.000230769
0.001542839
-0.0008480899
-7.54195e-05
0.001330369
-0.0009937203
4.60837e-05
0.00105114
-0.001080132
0.0001167807
0.0007636923
-0.001098208
0.0001254912
0.0005273318
-0.00104626
7.174056e-05
0.0003991213
-0.0009297322
-4.226628e-05
0.0004175701
-0.0007625754
-0.0001942361
0.0006100453
-0.0005615524
-0.0003754395
0.0009865538
-0.0003461565
-0.0005670657
0.001547142
-0.0001341337
-0.0007582092
0.00228934
6.045075e-05
-0.0009452991
0.003215311
0.0002286859
-0.001132108
0.004338471
0.0003662964
-0.001329673
0.005692339
0.0004730467
-0.001557455
0.007340989
0.0005529533
-0.001846628
0.009398921
0.0006135369
-0.002249139
0.01207696
0.0006646995
-0.002863612
0.0007119054
-0.003641954
-0.009703633
0.0009936711
-0.003537783
-0.007144652
0.0009668855
-0.002783726
-0.005192097
0.0009425644
-0.002195436
-0.00364079
0.0009109578
-0.001814398
-0.002375231
0.0008595787
-0.001548314
-0.001328305
0.0007790512
-0.001347469
-0.0004628561
0.0006642805
-0.001181581
0.0002367958
0.0005151392
-0.001030091
0.0007776761
0.0003341514
-0.0008814177
0.001159383
0.0001313564
-0.0007338848
0.001384298
-8.088316e-05
-0.0005875
0.00146096
-0.000287032
-0.0004483606
0.001407746
-0.0004686993
-0.0003261771
0.001255242
-0.0006077606
-0.0002334554
0.001046177
-0.0006902711
-0.0001807957
0.000830256
-0.0007072576
-0.000175029
0.0006590289
-0.0006573063
-0.0002177262
0.0005797671
-0.0005460369
-0.0003044335
0.0006290915
-0.0003855096
-0.0004263903
0.0008314275
-0.0001934533
-0.0005704355
0.001198265
1.22869e-05
-0.0007252817
0.001735703
0.0002121074
-0.0008836797
0.002444404
0.0003948201
-0.001043071
0.003331537
0.0005493939
-0.001207842
0.004415304
0.0006710799
-0.001388552
0.005733191
0.0007596673
-0.001604508
0.007352715
0.0008195441
-0.001886116
0.009391541
0.0008596536
-0.002284944
0.0120627
0.0008926475
-0.002899112
0.0009282374
-0.003681773
-0.009652316
0.001237451
-0.003580055
-0.007098249
0.00123394
-0.002821124
-0.00516478
0.001241856
-0.002232763
-0.003644001
0.001245136
-0.001854958
-0.002416755
0.001228001
-0.001595671
-0.001412068
0.001179736
-0.001405373
-0.0005886406
0.001095088
-0.001254237
7.486139e-05
0.0009741888
-0.001122553
0.0005882988
0.0008196814
-0.0009989686
0.0009566574
0.0006433468
-0.0008803501
0.0011867
0.0004555108
-0.0007664377
0.001288295
0.0002717593
-0.0006603873
0.001278659
0.0001097405
-0.0005688045
0.001183284
-1.216923e-05
-0.0005002163
0.001042179
-8.742702e-05
-0.0004617395
0.0008954575
-0.0001019607
-0.0004585757
0.0007862778
-5.63992e-05
-0.0004917278
0.0007548376
4.352608e-05
-0.0005581231
0.0008344126
0.0001862484
-0.0006513336
0.001046486
0.0003573454
-0.0007628725
0.001404527
0.0005392227
-0.0008849776
0.00191588
0.000714207
-0.001013454
0.002588385
0.0008697649
-0.00114745
0.003433491
0.0009958503
-0.001291564
0.00447394
0.001087093
-0.001456462
0.005751662
0.001142899
-0.001660955
0.007338474
0.001167823
-0.001935092
0.009356222
0.001172196
-0.002330291
0.01202124
0.001172032
-0.002944408
0.001183311
-0.003732746
-0.009558565
0.001519571
-0.003633951
-0.007009405
0.001554199
-0.002869421
-0.005097894
0.001611569
-0.002281226
-0.003611965
0.001666208
-0.001907003
-0.002427542
0.001698223
-0.001654647
-0.001468904
0.001695636
-0.00147454
-0.0006901625
0.001653383
-0.001337039
-6.504703e-05
0.001572002
-0.00122293
0.0004198955
0.001455714
-0.001120976
0.0007744354
0.001315818
-0.001027013
0.001007427
0.001162601
-0.0009400828
0.00112981
0.001010846
-0.0008614709
0.00115846
0.0008763037
-0.0007952146
0.001119178
0.0007734174
-0.0007463046
0.001039976
0.0007118889
-0.0007201147
0.0009568685
0.0007003319
-0.000719186
0.0009052843
0.0007396076
-0.0007444232
0.0009182176
0.0008244844
-0.0007938924
0.001023418
0.0009445795
-0.0008635327
0.001242114
0.001086847
-0.0009481986
0.001589002
0.001235759
-0.001043425
0.002074186
0.00137581
-0.001146787
0.002708852
0.001494123
-0.001259025
0.003509118
0.001580714
-0.00138513
0.004502383
0.001629563
-0.001535737
0.005735396
0.001639332
-0.001729447
0.007285134
0.001614316
-0.001996232
0.009278921
0.001566027
-0.002387619
0.01193771
0.001514508
-0.003001269
0.001485831
-0.003796454
-0.009404329
0.00185126
-0.003703393
-0.00686173
0.001944579
-0.002932982
-0.004977336
0.00207311
-0.002345936
-0.003532711
0.002197757
-0.001976177
-0.002397168
0.002293846
-0.001731167
-0.001489309
0.002348672
-0.001560896
-0.0007584091
0.002358184
-0.001435702
-0.0001740171
0.002324298
-0.00133669
0.0002811137
0.002253167
-0.001252585
0.0006202722
0.002155079
-0.001178421
0.0008542397
0.002041346
-0.001112714
0.0009948643
0.001925335
-0.001055115
0.001058045
0.00182095
-0.001007828
0.001064816
0.001740585
-0.0009739396
0.001039598
0.001693571
-0.0009564647
0.001011147
0.00168597
-0.0009571886
0.001008732
0.001718615
-0.0009765938
0.00105967
0.001787154
-0.001013608
0.001187296
0.001882845
-0.001065893
0.00141071
0.001993925
-0.001130493
0.001744789
0.002106673
-0.001204994
0.002202129
0.002207111
-0.001288642
0.002796863
0.002282608
-0.00138322
0.00354897
0.002322779
-0.001494173
0.004490206
0.002320513
-0.001632187
0.005672319
0.002273008
-0.001815791
0.007178291
0.002183431
-0.002075088
0.009142609
0.002063823
-0.002462115
0.01179367
0.001938797
-0.003075353
0.001847955
-0.003877443
-0.009165614
0.002251176
-0.003794562
-0.006635284
0.002433387
-0.003019139
-0.004787885
0.002661399
-0.00243569
-0.003395101
0.002877275
-0.002072303
-0.00231747
0.003051846
-0.001835633
-0.001467078
0.003173373
-0.001675095
-0.0007884635
0.003240498
-0.00156093
-0.0002475123
0.003257821
-0.001474476
0.0001764292
0.003233761
-0.001404537
0.0004984008
0.003178898
-0.001345791
0.0007307053
0.003105128
-0.001296088
0.0008852705
0.003024855
-0.001254087
0.0009764055
0.002950506
-0.001220693
0.001021681
0.002892887
-0.001197579
0.001041598
0.002860085
-0.001186433
0.00105906
0.002856915
-0.001188408
0.001097552
0.002883958
-0.001203836
0.001179346
0.0029375
-0.001232142
0.001324194
0.003010077
-0.001272081
0.001548978
0.003091305
-0.001322165
0.001868188
0.003168883
-0.00138142
0.002295663
0.003229846
-0.001450211
0.002847682
0.003261635
-0.001531047
0.003547157
0.003252953
-0.00162965
0.004429573
0.003194786
-0.00175669
0.00555156
0.003081614
-0.001930594
0.007002886
0.002913738
-0.002181633
0.008927337
0.002701873
-0.002562502
0.01156413
0.002474606
-0.003172606
0.00229015
-0.003980917
-0.008808727
0.002752377
-0.003917179
-0.00630529
0.003070304
-0.003140357
-0.004513544
0.003435351
-0.0025657
-0.00318992
0.003765889
-0.00221224
-0.002183702
0.00403137
-0.001985744
-0.00140007
0.004224915
-0.001835176
-0.0007794778
0.004350801
-0.001730897
-0.0002851839
0.004418177
-0.001654652
0.0001055204
0.004438573
-0.001595519
0.0004084364
0.004424116
-0.001548136
0.0006363571
0.004387114
-0.001509908
0.0008006005
0.004339513
-0.001478903
0.0009136761
0.004292638
-0.001455208