/*--------------------------------*- C++ -*----------------------------------*\
| =========                 |                                                 |
| \\      /  F ield         | OpenFOAM: The Open Source CFD Toolbox           |
|  \\    /   O peration     | Version:  2506                                  |
|   \\  /    A nd           | Website:  www.openfoam.com                      |
|    \\/     M anipulation  |                                                 |
\*---------------------------------------------------------------------------*/
FoamFile
{
    version     2.0;
    format      ascii;
    arch        "LSB;label=32;scalar=64";
    class       volScalarField;
    location    "1000/solid";
    object      damage;
}
// * * * * * * * * * * * * * * * * * * * * * * * * * * * * * * * * * * * * * //

dimensions      [0 0 0 0 0 0 0];

internalField   nonuniform List<scalar> 
2304
(
0.3204193
0.3238719
0.3243797
0.3244114
0.3243067
0.3234881
0.3236293
0.3273019
0.3278149
0.327857
0.3277756
0.3269883
0.3240994
0.3277561
0.3282754
0.3283219
0.3282429
0.3274601
0.3241422
0.3277939
0.3283147
0.3283622
0.3282833
0.3275013
0.3240547
0.3277147
0.3282328
0.3282786
0.3281995
0.3274158
0.3232398
0.3269119
0.3274221
0.3274621
0.3273784
0.3265882
0.3218376
0.324901
0.3247029
0.3282272
0.325313
0.3257651
0.3286396
0.329085
0.3258063
0.3258387
0.3291252
0.3291601
0.3258341
0.3257782
0.3291587
0.329118
0.3257317
0.3253027
0.3290792
0.3286791
0.3249267
0.322114
0.3283117
0.3250792
0.3250818
0.328602
0.3255022
0.3290031
0.3290149
0.3294612
0.3294157
0.329864
0.3295016
0.3295376
0.3299051
0.3299432
0.3295366
0.3294977
0.3299428
0.3299056
0.3294595
0.329062
0.329868
0.3294733
0.3286956
0.3254718
0.3291091
0.3259113
0.3255439
0.3290402
0.3255854
0.3290753
0.3294527
0.3299013
0.3294875
0.3299366
0.3299426
0.3299811
0.3299782
0.3300173
0.3299808
0.3299437
0.330017
0.32998
0.3299061
0.3295117
0.3299424
0.3295484
0.329148
0.325956
0.3291854
0.3260012
0.3255852
0.3290752
0.3255429
0.3290395
0.3294874
0.3299365
0.329452
0.3299006
0.3299781
0.3300172
0.329942
0.3299805
0.3300169
0.3299799
0.3299801
0.329943
0.3299423
0.3295483
0.3299054
0.329511
0.3291853
0.3260009
0.3291471
0.325954
0.3255009
0.3290021
0.3250786
0.3285995
0.3294148
0.3298631
0.3290125
0.3294589
0.3299042
0.3299423
0.3294992
0.3295353
0.3299419
0.3299047
0.3295343
0.3294954
0.329867
0.3294722
0.3294572
0.3290595
0.3291079
0.3259087
0.3286929
0.3254669
0.3246984
0.3282236
0.3218235
0.3248886
0.3286361
0.3290816
0.3253007
0.3257529
0.3291217
0.3291568
0.3257941
0.3258265
0.3291553
0.3291147
0.3258219
0.3257661
0.3290758
0.3286755
0.3257196
0.3252905
0.3283079
0.325073
0.3249144
0.3221007
0.3234501
0.3232444
0.3264877
0.3243359
0.3269156
0.3273816
0.3244155
0.3274258
0.3274668
0.3243548
0.3274658
0.3274238
0.3238706
0.327382
0.3269697
0.3207036
0.3265922
0.3236439
0.3268726
0.3240561
0.3272856
0.3277701
0.3277157
0.3281878
0.3278574
0.3282338
0.3282793
0.3278167
0.3282796
0.3282412
0.3273652
0.3282005
0.3277922
0.3240463
0.3274171
0.3244975
0.3273259
0.3241423
0.3273638
0.3282291
0.327794
0.328268
0.3283215
0.3283148
0.3283617
0.3282836
0.3283623
0.3283241
0.3278349
0.3282834
0.3278756
0.3245453
0.3275015
0.3245938
0.3273637
0.3240984
0.3273252
0.3282679
0.3277553
0.3282284
0.3283616
0.3282747
0.3283207
0.328324
0.3283212
0.3282829
0.3278755
0.3282422
0.327834
0.3245935
0.3274591
0.3245434
0.3272846
0.323626
0.32687
0.3281868
0.3272993
0.3277676
0.3282783
0.3278124
0.3278549
0.3282402
0.3278544
0.3278142
0.3277911
0.3277731
0.3273625
0.324495
0.3269854
0.3240413
0.3264838
0.320405
0.323437
0.3273779
0.3238589
0.324323
0.3274631
0.3243667
0.3244025
0.3274202
0.3243984
0.3243418
0.3269659
0.3242938
0.3238576
0.3236376
0.323475
0.3206894
0.3243189
0.3214774
0.3228689
0.3227913
0.3267915
0.3250439
0.3252866
0.3265502
0.3270601
0.3255399
0.3255597
0.3270407
0.3270506
0.3255599
0.325547
0.3270621
0.3268775
0.3254446
0.3253633
0.3269555
0.3255025
0.324613
0.323983
0.3261376
0.3265911
0.32479
0.3263679
0.325016
0.3290885
0.3286246
0.3288663
0.3288465
0.3293563
0.3291137
0.3291334
0.3293364
0.3293543
0.3291395
0.3291304
0.3293631
0.329197
0.3290458
0.3289721
0.3292703
0.3278338
0.328243
0.3276067
0.3284691
0.3268577
0.3252663
0.3268341
0.3252912
0.3293462
0.3290823
0.3293244
0.3291042
0.3296161
0.3295736
0.3295939
0.3295957
0.3296153
0.3296016
0.3295929
0.3296239
0.3294582
0.3295093
0.329436
0.3295315
0.3281009
0.3287101
0.3280778
0.3287326
0.32687
0.3253105
0.3268758
0.3253043
0.3293575
0.3291207
0.3293628
0.3291155
0.3296276
0.3296125
0.3296329
0.3296071
0.3296268
0.3296409
0.3296322
0.3296355
0.3294696
0.3295483
0.329475
0.329543
0.3281128
0.3287497
0.3281185
0.3287442
0.3267175
0.325221
0.3267909
0.3251452
0.3292127
0.3290416
0.3292837
0.3289707
0.3294813
0.3295326
0.3295528
0.3294612
0.3294798
0.3295603
0.3295516
0.3294885
0.3293229
0.329468
0.3293948
0.3293961
0.3279611
0.3286681
0.3280347
0.3285955
0.3253359
0.3243993
0.3259796
0.3237621
0.3278246
0.3282351
0.3284766
0.3275835
0.3280914
0.3287238
0.3287433
0.328072
0.3280849
0.3287484
0.3287389
0.3280951
0.3279196
0.3286525
0.3285782
0.3279952
0.3265481
0.3278468
0.3272095
0.3271851
0.3217162
0.3216497
0.3230534
0.3241172
0.3252595
0.3255047
0.3244026
0.3257654
0.3257883
0.3244014
0.3257997
0.3257914
0.3242286
0.3257043
0.3256298
0.3228649
0.3249003
0.3242746
0.3250707
0.3238529
0.3252909
0.3275501
0.3275214
0.3277702
0.3278393
0.3280366
0.3280615
0.3278516
0.3280803
0.3280752
0.3277057
0.3280002
0.3279306
0.3263637
0.3272148
0.3265915
0.3255302
0.3241235
0.3255529
0.3280057
0.3277777
0.3280274
0.3283012
0.3282977
0.3283236
0.3283173
0.3283447
0.3283402
0.3281735
0.3282658
0.3281964
0.3268401
0.3274835
0.3268642
0.3255702
0.3241363
0.3255648
0.3280438
0.3277889
0.3280388
0.3283407
0.3283095
0.3283355
0.3283576
0.3283569
0.3283523
0.3282139
0.328278
0.3282086
0.3268826
0.3274958
0.3268769
0.3254874
0.3239806
0.3254159
0.3279641
0.3276451
0.3278943
0.3282583
0.328162
0.3281872
0.3282739
0.3282069
0.328202
0.3281301
0.3281274
0.328058
0.3267947
0.3273428
0.3267205
0.3246833
0.3226067
0.3240465
0.3271591
0.3262681
0.3265143
0.327446
0.3267757
0.3267991
0.3274562
0.326813
0.3268061
0.3273078
0.3267249
0.3266528
0.3259623
0.3259295
0.3253031
0.3254289
0.3246252
0.3239314
0.3261315
0.3253422
0.3244042
0.3237689
0.3259842
0.3264614
0.3278174
0.3271688
0.3271073
0.3251346
0.3221993
0.3231867
0.3231163
0.3235647
0.3234911
0.324732
0.3262534
0.3252835
0.3242229
0.3265335
0.3246046
0.3269408
0.3258465
0.3261818
0.3250805
0.3240785
0.3264086
0.324455
0.3268158
0.3257763
0.3273098
0.3286394
0.3275904
0.3275349
0.3280007
0.3279467
0.3268999
0.3269271
0.3254998
0.3254241
0.3270015
0.3278301
0.3282392
0.327589
0.3284806
0.327965
0.3286889
0.3280387
0.3286154
0.3275869
0.3256946
0.3255528
0.3269443
0.3259334
0.3273504
0.3271821
0.32772
0.3261433
0.3256893
0.3273906
0.3260687
0.327793
0.3273165
0.3286468
0.3290502
0.328002
0.3288775
0.3284108
0.3292863
0.3282396
0.328779
0.3294905
0.328447
0.3290114
0.3288513
0.3294184
0.3283733
0.3270679
0.3255669
0.3255673
0.327068
0.3280969
0.3287277
0.3280775
0.3287472
0.3281049
0.3287567
0.3281056
0.3287555
0.3278515
0.3261832
0.3258276
0.3274309
0.3262032
0.3278319
0.3274517
0.32786
0.3262119
0.3258371
0.3274636
0.3262115
0.3278612
0.3274613
0.3289094
0.329529
0.328487
0.3291463
0.3288898
0.3295487
0.3285078
0.3289181
0.3295601
0.3285207
0.3291566
0.32892
0.3295578
0.3285178
0.327032
0.3254949
0.3255265
0.3270028
0.3280903
0.3287523
0.3281006
0.3287428
0.3280732
0.3287003
0.3280458
0.3287266
0.3278476
0.3262063
0.325824
0.3274604
0.326195
0.327857
0.3274521
0.3278316
0.3261472
0.3258065
0.3274119
0.3261764
0.3278055
0.3274371
0.3289087
0.3295576
0.3285186
0.3291525
0.3289168
0.3295503
0.3285115
0.3288943
0.3295138
0.3284749
0.3291401
0.3288701
0.3295369
0.3284981
0.3267454
0.3249982
0.3252272
0.3265201
0.327925
0.3286564
0.3280007
0.3285822
0.3277954
0.328232
0.3275724
0.3284539
0.3276887
0.3260998
0.3256551
0.3273693
0.326022
0.327762
0.327297
0.3275625
0.3256671
0.3255246
0.3269557
0.3258904
0.3273448
0.3271719
0.3287585
0.3294741
0.3284347
0.3290112
0.3288291
0.329405
0.3283652
0.3286353
0.3290702
0.3280298
0.3288907
0.3284206
0.3292834
0.3282431
0.324496
0.3217177
0.3230174
0.3230732
0.3265545
0.3278512
0.327191
0.3272143
0.3255439
0.3247385
0.3240834
0.3262028
0.3263486
0.3252899
0.324311
0.3265848
0.324672
0.3269727
0.3259634
0.3253222
0.3224529
0.3233659
0.3234374
0.3237231
0.3237879
0.324942
0.3274257
0.3287013
0.3276612
0.3276905
0.3280505
0.3280769
0.3270394
0.3263934
0.3254291
0.3244339
0.3266632
0.3247846
0.327044
0.3260123
0.3277132
0.3282022
0.3274912
0.3284241
0.3267194
0.3252226
0.3251473
0.3267924
0.3278398
0.3286207
0.32855
0.3279113
0.3274086
0.32546
0.3267836
0.3253027
0.3271914
0.3256816
0.327
0.3285371
0.3290146
0.3279094
0.3288161
0.3283216
0.3292295
0.328124
0.3275323
0.3258823
0.32543
0.3271922
0.3258095
0.3276019
0.3271232
0.3286587
0.3294173
0.3289365
0.3283124
0.3293503
0.3287265
0.3282451
0.3292236
0.3290748
0.3290012
0.3292974
0.3292144
0.3290428
0.3289723
0.3292849
0.3293496
0.3294944
0.3294236
0.3294203
0.329877
0.3294257
0.3292531
0.3292291
0.329662
0.3296406
0.3294676
0.3300093
0.3298664
0.3293873
0.3296762
0.3297942
0.3300817
0.329602
0.3299976
0.3298279
0.3293493
0.3296545
0.3297611
0.3300643
0.329588
0.33013
0.3302696
0.3297971
0.3297893
0.3302026
0.3301969
0.3297226
0.3293651
0.3291435
0.329142
0.3293669
0.3294829
0.3295338
0.3294628
0.329554
0.3294919
0.3295651
0.3294938
0.3295631
0.3301406
0.329905
0.3295231
0.3297169
0.329925
0.3301205
0.3297386
0.3301502
0.329937
0.3295337
0.3297538
0.3299343
0.3301531
0.3297496
0.3302619
0.3303088
0.329838
0.3299273
0.3302416
0.3303292
0.32986
0.3302716
0.3303423
0.3298756
0.3299386
0.3302748
0.3303391
0.3298712
0.3293389
0.329089
0.3291148
0.3293134
0.3294814
0.3295615
0.3294901
0.3295529
0.3294661
0.3295122
0.3294407
0.3295376
0.3301446
0.3299348
0.3295309
0.3297531
0.329928
0.3301512
0.3297477
0.330132
0.3298927
0.3295191
0.3297151
0.3299151
0.33011
0.3297362
0.3302666
0.3303406
0.329875
0.3299377
0.330273
0.3303343
0.3298698
0.3302541
0.3303
0.3298376
0.3299264
0.3302322
0.3303219
0.3298585
0.3290697
0.3286232
0.3288446
0.3288488
0.3293245
0.3294693
0.3293978
0.329396
0.3291974
0.3290484
0.3289767
0.3292689
0.3300033
0.3298537
0.3293923
0.3296773
0.3297854
0.3300713
0.3296105
0.329883
0.3294523
0.3292728
0.3292812
0.3296646
0.3296713
0.3294914
0.3301259
0.3302615
0.3297999
0.3298015
0.3301936
0.3301938
0.3297333
0.3300058
0.3298628
0.3294047
0.3296827
0.3297944
0.3300739
0.3296144
0.3268258
0.3251356
0.3265966
0.3253683
0.3279634
0.3286697
0.3285975
0.3280365
0.3269575
0.3255812
0.3255036
0.3270325
0.3286822
0.3290843
0.3280756
0.3289157
0.328461
0.3293041
0.3282972
0.3276539
0.32582
0.3270506
0.3257016
0.3274301
0.3260487
0.327275
0.3288074
0.3294969
0.3290399
0.3284933
0.329428
0.3288775
0.3284228
0.3277817
0.3262566
0.3258348
0.3274761
0.326181
0.327854
0.3274034
0.3279743
0.3286605
0.3279517
0.3286826
0.3268705
0.3253107
0.3253048
0.326876
0.3279864
0.3286994
0.3286944
0.3279916
0.327663
0.3259242
0.3272313
0.3255673
0.3276412
0.3259479
0.3272529
0.3287851
0.3294544
0.3283501
0.3290603
0.3287643
0.3294747
0.3283707
0.3276746
0.3259662
0.32558
0.3272692
0.3259607
0.3276796
0.3272644
0.328796
0.3294897
0.3290708
0.3283861
0.3294853
0.3288007
0.3283815
0.3294818
0.3295341
0.3294598
0.3295561
0.3293579
0.3291209
0.3291159
0.3293629
0.3294935
0.3295729
0.3295679
0.3294985
0.3301212
0.3298647
0.3296915
0.3294727
0.3301011
0.3298848
0.3297115
0.3302539
0.3303067
0.3298264
0.3299216
0.3302338
0.3303268
0.3298466
0.3301316
0.3298997
0.3294831
0.3297263
0.3298953
0.3301361
0.3297219
0.3302644
0.3303419
0.3299322
0.3298615
0.3303374
0.3302689
0.3298571
0.3296253
0.3296051
0.3296031
0.3296274
0.3296279
0.3296126
0.3296075
0.3296331
0.3296372
0.3296445
0.3296394
0.3296424
0.3303869
0.3303459
0.329965
0.329963
0.3303665
0.3303662
0.3299855
0.3303969
0.3303798
0.3299765
0.3300018
0.3303764
0.3304003
0.3299971
0.3303975
0.3303813
0.3299737
0.3300008
0.3303768
0.3304021
0.3299962
0.3304076
0.3304156
0.3300127
0.3300124
0.330411
0.3304122
0.3300079
0.3296
0.3295522
0.3295777
0.3295745
0.3296272
0.329641
0.3296359
0.3296323
0.3296119
0.3295915
0.3295864
0.3296171
0.3303924
0.3303781
0.3299757
0.3300015
0.3303718
0.3303987
0.3299965
0.33038
0.3303375
0.3299645
0.3299645
0.3303595
0.3303581
0.3299853
0.3304032
0.330414
0.3300124
0.3300121
0.3304094
0.3304078
0.3300074
0.3303908
0.3303734
0.3299754
0.3300008
0.3303689
0.3303954
0.3299962
0.3293311
0.3290885
0.3293089
0.3291107
0.32947
0.3295485
0.3295434
0.3294751
0.3293429
0.3291277
0.3291226
0.329348
0.3302519
0.3302991
0.3298396
0.3299269
0.3302314
0.3303196
0.3298604
0.3301321
0.3299006
0.329721
0.3295328
0.3301115
0.3299213
0.3297418
0.3302626
0.3303349
0.3299378
0.3298759
0.3303304
0.3302672
0.3298713
0.3301428
0.3299368
0.3295438
0.3297574
0.3299322
0.3301474
0.3297528
0.3270994
0.3256263
0.3270753
0.3256519
0.3281133
0.3287499
0.3287447
0.3281187
0.3271126
0.3256721
0.325666
0.3271182
0.3289384
0.3295352
0.3285331
0.3291694
0.3289167
0.3295562
0.3285552
0.3279178
0.3263004
0.3275177
0.3259814
0.3278949
0.3263252
0.327541
0.3289499
0.329572
0.3291806
0.3285719
0.3295673
0.3289548
0.3285669
0.32793
0.3263445
0.3259953
0.3275589
0.3263387
0.3279353
0.3275536
0.327986
0.3286993
0.3279915
0.328694
0.3268569
0.3252652
0.3252903
0.3268331
0.3279736
0.3286595
0.3286819
0.3279507
0.3276742
0.325966
0.3272691
0.3255795
0.3276795
0.3259602
0.327264
0.3287957
0.3294897
0.328386
0.3290706
0.3288006
0.3294849
0.3283812
0.3276623
0.3259232
0.3255666
0.3272304
0.3259471
0.3276402
0.3272523
0.3287845
0.3294536
0.3290598
0.3283494
0.3294741
0.3287635
0.3283702
0.3294931
0.3295728
0.3294984
0.3295675
0.3293456
0.3290814
0.3291035
0.3293234
0.3294811
0.3295332
0.3295555
0.3294589
0.3301313
0.3298996
0.3297262
0.3294828
0.330136
0.329895
0.3297217
0.3302641
0.3303418
0.3298614
0.3299319
0.3302688
0.3303371
0.3298568
0.3301207
0.329864
0.3294722
0.3296908
0.3298843
0.3301004
0.329711
0.3302534
0.3303059
0.3299211
0.3298258
0.3303264
0.3302331
0.3298461
0.3296368
0.3296444
0.3296422
0.329639
0.3296154
0.3295727
0.3295951
0.329593
0.3296247
0.3296042
0.3296268
0.3296021
0.3303972
0.3303812
0.3300007
0.3299735
0.330402
0.3303765
0.329996
0.3304073
0.3304155
0.3300124
0.3300124
0.3304121
0.3304107
0.3300076
0.3303864
0.3303452
0.3299626
0.3299643
0.3303657
0.3303658
0.329985
0.3303964
0.330379
0.3300014
0.3299758
0.3303998
0.3303757
0.3299966
0.3296115
0.3295914
0.3296169
0.329586
0.3296146
0.3296007
0.3296233
0.329592
0.3295993
0.3295513
0.3295739
0.3295768
0.3304029
0.3304139
0.330012
0.3300122
0.3304077
0.3304091
0.3300072
0.3303905
0.3303733
0.3300008
0.3299752
0.3303953
0.3303686
0.329996
0.3303919
0.3303774
0.3300011
0.3299751
0.3303982
0.3303711
0.3299961
0.3303795
0.3303368
0.329964
0.3299638
0.3303576
0.3303587
0.3299848
0.3293425
0.3291276
0.3293479
0.3291222
0.3294575
0.3295083
0.3295309
0.329435
0.3293304
0.3290874
0.32911
0.3293079
0.3302623
0.3303348
0.3298758
0.3299375
0.3302671
0.33033
0.329871
0.3301425
0.3299367
0.3297573
0.3295435
0.3301473
0.3299318
0.3297525
0.3302514
0.3302983
0.3299264
0.3298389
0.3303191
0.3302306
0.3298599
0.3301315
0.3298998
0.3295322
0.3297202
0.3299208
0.3301107
0.3297413
0.3271119
0.3256718
0.327118
0.3256652
0.3280999
0.328709
0.3287319
0.3280764
0.3270983
0.3256242
0.3256505
0.3270736
0.3289494
0.3295719
0.3285717
0.3291803
0.3289546
0.3295669
0.3285664
0.3279294
0.3263442
0.3275587
0.3259945
0.3279351
0.3263378
0.327553
0.3289376
0.3295343
0.3291688
0.3285321
0.3295556
0.3289156
0.3285544
0.3279167
0.3262984
0.32598
0.3275163
0.3263238
0.3278934
0.32754
0.327838
0.3286194
0.3279099
0.3285483
0.3265886
0.3247864
0.3250133
0.3263646
0.3277109
0.3281992
0.3284218
0.3274881
0.3275306
0.3258809
0.327191
0.3254281
0.3276007
0.3258076
0.3271216
0.3286572
0.3294162
0.3283114
0.3289352
0.3287254
0.3293489
0.3282437
0.3274064
0.3254567
0.3253003
0.3267808
0.3256791
0.3271884
0.326998
0.328535
0.329012
0.3288143
0.3279067
0.3292276
0.3283189
0.3281221
0.329348
0.3294932
0.3294191
0.329422
0.3290863
0.3286217
0.3288444
0.3288634
0.3292214
0.329072
0.3292952
0.3289984
0.3299962
0.3298269
0.3296535
0.329348
0.3300633
0.3297598
0.3295867
0.3301287
0.3302686
0.3297884
0.3297959
0.3301959
0.3302013
0.3297214
0.3298752
0.3294232
0.3292274
0.3292508
0.3296387
0.3296595
0.3294659
0.3300075
0.3298639
0.3296746
0.3293849
0.3300799
0.3297917
0.3296003
0.3294902
0.3295639
0.3295619
0.3294922
0.3293542
0.3291109
0.3293343
0.3291306
0.329363
0.3291407
0.3293648
0.3291392
0.3302606
0.3303078
0.3299264
0.3298368
0.3303283
0.3302403
0.3298588
0.3302703
0.3303413
0.3299377
0.3298744
0.3303381
0.3302735
0.3298699
0.3301389
0.3299026
0.3297152
0.3295207
0.3301187
0.3299225
0.329737
0.3301484
0.3299345
0.3297521
0.3295314
0.3301514
0.3299318
0.3297479
0.3294645
0.329511
0.3295364
0.3294391
0.3293521
0.3291367
0.329361
0.3291276
0.3293368
0.3290862
0.3293113
0.329112
0.3302652
0.3303397
0.3299368
0.3298738
0.3303333
0.3302717
0.3298686
0.3302528
0.330299
0.3299255
0.3298364
0.3303209
0.3302308
0.3298573
0.3301429
0.3299324
0.3297514
0.3295286
0.3301495
0.3299256
0.329746
0.3301303
0.3298903
0.3297135
0.3295168
0.3301082
0.3299127
0.3297345
0.3291957
0.329047
0.3292676
0.3289749
0.3291949
0.3290429
0.3292682
0.3289693
0.3290675
0.3286202
0.3288464
0.3288416
0.3301245
0.3302605
0.3298005
0.3297987
0.3301928
0.3301923
0.329732
0.3300044
0.3298617
0.3296818
0.3294033
0.3300728
0.3297929
0.3296131
0.3300016
0.3298513
0.3296756
0.32939
0.3300695
0.3297829
0.3296088
0.3298812
0.3294497
0.3292794
0.3292704
0.3296694
0.3296621
0.3294896
0.3269547
0.3255785
0.3270303
0.3255002
0.3278309
0.3282397
0.3284666
0.327603
0.3268223
0.3251304
0.3253641
0.3265923
0.3288054
0.3294956
0.3284918
0.3290383
0.328876
0.3294263
0.328421
0.3277793
0.3262541
0.3274742
0.3258316
0.327852
0.3261777
0.327401
0.3286797
0.3290815
0.3289137
0.3280725
0.329302
0.3284578
0.3282948
0.3276509
0.325815
0.3256976
0.3270468
0.3260447
0.3274262
0.327272
0.3264555
0.3278133
0.327103
0.3271631
0.3243102
0.3214651
0.3227819
0.3228577
0.3254208
0.324615
0.3261237
0.3239209
0.3261758
0.3250759
0.3264045
0.3240719
0.3268116
0.3244484
0.3257703
0.3273042
0.3286357
0.3275312
0.3275851
0.3279429
0.3279954
0.3268943
0.325126
0.3221858
0.3231066
0.3231731
0.3234816
0.3235523
0.3247229
0.3262454
0.3252726
0.3265253
0.32421
0.3269332
0.3245934
0.325838
0.3279595
0.328685
0.3286115
0.3280332
0.3267839
0.3250339
0.3265426
0.3252767
0.3269195
0.3254897
0.3269939
0.3254141
0.3286417
0.3290467
0.3288741
0.3279967
0.3292828
0.3284057
0.3282344
0.3287739
0.3294871
0.3290079
0.3284418
0.3294149
0.3288462
0.3283682
0.3275795
0.3256839
0.3269363
0.3255407
0.3273429
0.3259228
0.3271742
0.3277126
0.3261326
0.3273827
0.3256771
0.3277856
0.3260581
0.3273086
0.3280994
0.3287528
0.3287516
0.3281002
0.3270525
0.3255298
0.3270331
0.3255496
0.3270603
0.3255568
0.3270604
0.3255572
0.3289043
0.3295255
0.3291429
0.3284818
0.3295453
0.3288847
0.3285027
0.3289131
0.3295567
0.3291532
0.3285157
0.3295543
0.328915
0.3285126
0.3278441
0.3261726
0.327423
0.3258154
0.3278245
0.3261926
0.3274438
0.3278525
0.3262012
0.3274557
0.3258248
0.3278538
0.3262008
0.3274534
0.3280678
0.3286964
0.3287228
0.3280403
0.327043
0.3255498
0.3270545
0.3255369
0.3270244
0.3254848
0.3269952
0.3255163
0.3289037
0.3295541
0.3291491
0.3285135
0.3295468
0.3289118
0.3285064
0.3288893
0.3295104
0.3291367
0.3284699
0.3295334
0.3288651
0.328493
0.3278403
0.3261956
0.3274526
0.3258118
0.3278496
0.3261843
0.3274442
0.3278242
0.3261365
0.327404
0.3257943
0.3277981
0.3261658
0.3274292
0.3277899
0.3282279
0.3284499
0.3275667
0.3268699
0.3254345
0.3269479
0.3253532
0.3267377
0.3249879
0.3265123
0.325217
0.3287535
0.3294707
0.3290078
0.3284296
0.3294016
0.3288241
0.3283601
0.3286302
0.3290666
0.3288873
0.3280246
0.3292799
0.3284154
0.328238
0.3276814
0.3260892
0.3273615
0.325643
0.3277547
0.3260114
0.3272892
0.3275551
0.3256564
0.3269477
0.3255125
0.3273373
0.3258797
0.3271641
0.3255368
0.324732
0.3261973
0.3240752
0.325494
0.3246024
0.3261295
0.3239721
0.3244868
0.3217051
0.3230628
0.3230058
0.3274198
0.3286975
0.3276863
0.3276558
0.3280726
0.3280451
0.3270335
0.3263868
0.3254229
0.3266582
0.3244259
0.3270389
0.3247766
0.3260057
0.3263405
0.325279
0.3265767
0.3242984
0.326965
0.3246608
0.3259549
0.3253133
0.3224401
0.3234269
0.3233532
0.3237776
0.3237114
0.3249327
0.3227589
0.3248357
0.3241354
0.3226134
0.3246876
0.3240528
0.3258475
0.3257797
0.3251422
0.3242577
0.3257219
0.3256444
0.3262737
0.3271628
0.3265199
0.3267375
0.3273034
0.3266598
0.3244132
0.3258026
0.3257994
0.3267812
0.3274497
0.3268046
0.3268203
0.327462
0.3268163
0.3243836
0.3257495
0.3257757
0.3268185
0.3274598
0.3268116
0.3267733
0.3274468
0.3267976
0.3240956
0.3252801
0.3255008
0.3267303
0.3273115
0.3266583
0.3263137
0.3271865
0.3265318
0.3219165
0.3219841
0.3232941
0.3259353
0.3259667
0.3253094
0.3229876
0.3249845
0.3243269
0.3261634
0.3270917
0.3263824
0.3239825
0.3254886
0.3254176
0.3272165
0.3265773
0.3265076
0.3276913
0.3279914
0.3279121
0.3276465
0.3279651
0.3278956
0.3281177
0.3281078
0.328038
0.3278521
0.3280804
0.3280747
0.3281634
0.3282594
0.3281886
0.3282081
0.3282731
0.3282021
0.3278391
0.3280411
0.3280631
0.3282082
0.3282749
0.3282034
0.3281695
0.3282631
0.3281914
0.3275813
0.327591
0.3278067
0.3281288
0.3281311
0.3280593
0.3277201
0.3280074
0.3279355
0.3253832
0.324281
0.3256134
0.3273444
0.3267962
0.3267224
0.3244184
0.3258227
0.3257469
0.3266179
0.3273475
0.3266398
0.3241367
0.3255703
0.3255652
0.3273591
0.3266564
0.3266516
0.3281487
0.3282512
0.3281706
0.3277892
0.3280439
0.3280391
0.3282632
0.3281873
0.3281824
0.3283151
0.3283442
0.3283378
0.3283098
0.3283408
0.3283358
0.3283566
0.3283551
0.3283501
0.3283055
0.3283065
0.3283284
0.3283571
0.3283577
0.3283526
0.328319
0.328346
0.3283408
0.3280498
0.327858
0.3280728
0.3282783
0.328214
0.3282089
0.3278705
0.3280904
0.3280852
0.3258682
0.3245724
0.3258935
0.3274962
0.3268828
0.3268773
0.3245874
0.3259133
0.3259074
0.3266563
0.3273588
0.3266512
0.3241228
0.3255293
0.3255522
0.327347
0.3266171
0.3266392
0.3281872
0.3282629
0.3281821
0.3277771
0.328005
0.3280269
0.3282507
0.328148
0.3281701
0.328355
0.3283563
0.3283498
0.3282972
0.3283004
0.3283231
0.3283437
0.3283144
0.3283373
0.3283459
0.3283187
0.3283405
0.3283442
0.3283165
0.3283396
0.328306
0.3283047
0.3283279
0.3280902
0.3278702
0.3280849
0.3282653
0.3281728
0.3281959
0.3278574
0.3280491
0.3280722
0.325913
0.3245866
0.3259068
0.3274828
0.3268389
0.3268634
0.324571
0.3258667
0.3258925
0.3265761
0.3272151
0.3265061
0.3238504
0.3250678
0.3252888
0.3270898
0.3261607
0.3263804
0.3281067
0.3281163
0.3280366
0.3275196
0.3275475
0.3277684
0.3279895
0.3276888
0.3279102
0.3282721
0.3282067
0.3282008
0.3280348
0.3278368
0.3280597
0.3280786
0.3278496
0.3280729
0.328262
0.3281682
0.3281901
0.3280785
0.3278491
0.3280734
0.3280392
0.3278366
0.3280613
0.3280063
0.3277186
0.3279341
0.3279984
0.3277031
0.3279288
0.327589
0.3275788
0.3278048
0.3258208
0.3244152
0.3257444
0.3272126
0.3263604
0.3265889
0.324277
0.3253792
0.3256103
0.3257757
0.3258418
0.3251362
0.3216397
0.3217021
0.3230438
0.3248269
0.3227453
0.3241263
0.3272997
0.326732
0.3266543
0.3252508
0.3241043
0.3254961
0.3257133
0.3242447
0.3256358
0.3274583
0.3268148
0.3268108
0.3257568
0.3243895
0.3257798
0.325794
0.3244002
0.3257908
0.3274432
0.3267679
0.3267921
0.3257911
0.3243884
0.3257828
0.325741
0.3243706
0.3257671
0.3271828
0.3263081
0.3265263
0.3256958
0.3242157
0.3256214
0.3252715
0.3240827
0.3254923
0.3249793
0.3229794
0.3243199
0.3248915
0.3228514
0.3242654
0.3219731
0.3219026
0.3232843
)
;

boundaryField
{
    solid_to_air
    {
        type            zeroGradient;
    }
}


// ************************************************************************* //
