/*--------------------------------*- C++ -*----------------------------------*\
| =========                 |                                                 |
| \\      /  F ield         | OpenFOAM: The Open Source CFD Toolbox           |
|  \\    /   O peration     | Version:  2506                                  |
|   \\  /    A nd           | Website:  www.openfoam.com                      |
|    \\/     M anipulation  |                                                 |
\*---------------------------------------------------------------------------*/
FoamFile
{
    version     2.0;
    format      ascii;
    arch        "LSB;label=32;scalar=64";
    class       volScalarField;
    location    "1000/solid";
    object      T;
}
// * * * * * * * * * * * * * * * * * * * * * * * * * * * * * * * * * * * * * //

dimensions      [0 0 0 1 0 0 0];

internalField   nonuniform List<scalar> 
2304
(
319.9183
320.2159
320.2992
320.307
320.2872
320.1664
320.2084
320.5332
320.6176
320.626
320.6078
320.4871
320.288
320.6128
320.6979
320.7067
320.6889
320.5683
320.2971
320.6214
320.7066
320.7155
320.6977
320.5773
320.2791
320.604
320.689
320.6978
320.68
320.5593
320.1579
320.4813
320.5653
320.5734
320.5551
320.4344
320.0266
320.2772
320.2716
320.5707
320.329
320.4029
320.6237
320.6979
320.4117
320.4198
320.7065
320.7147
320.4193
320.4088
320.7144
320.705
320.3997
320.3291
320.6965
320.6272
320.2799
320.0358
320.5776
320.2881
320.321
320.6211
320.3913
320.6909
320.6744
320.7488
320.7443
320.819
320.7575
320.7658
320.8278
320.8364
320.7655
320.7563
320.8362
320.8273
320.7479
320.6787
320.8189
320.75
320.629
320.339
320.7003
320.4116
320.4
320.6991
320.409
320.7076
320.7526
320.8273
320.761
320.8357
320.8362
320.8447
320.8446
320.8532
320.8446
320.8357
320.8531
320.8442
320.8274
320.7585
320.8359
320.7671
320.7089
320.4206
320.7176
320.43
320.409
320.7076
320.3999
320.6991
320.761
320.8357
320.7525
320.8273
320.8446
320.8532
320.8361
320.8447
320.8531
320.8442
320.8445
320.8356
320.8359
320.7671
320.8273
320.7584
320.7176
320.43
320.7087
320.4204
320.3912
320.6907
320.3207
320.6208
320.7442
320.8189
320.6741
320.7485
320.8277
320.8363
320.7572
320.7655
320.8361
320.8272
320.7652
320.756
320.8188
320.7498
320.7476
320.6783
320.7001
320.4114
320.6285
320.3385
320.271
320.5702
320.0254
320.276
320.6233
320.6974
320.3279
320.4018
320.7061
320.7143
320.4106
320.4187
320.714
320.7046
320.4182
320.4076
320.696
320.6267
320.3986
320.3279
320.577
320.2874
320.2787
320.0346
320.1635
320.1584
320.4281
320.2902
320.4817
320.5567
320.3075
320.5657
320.5742
320.2964
320.5739
320.5643
320.2161
320.5555
320.4853
319.9267
320.4349
320.1737
320.4793
320.2792
320.5499
320.6086
320.6042
320.68
320.6262
320.6891
320.6981
320.6166
320.6979
320.6888
320.5376
320.6801
320.61
320.2252
320.5594
320.2984
320.5586
320.2971
320.5672
320.6887
320.6214
320.6974
320.7069
320.7066
320.7157
320.6976
320.7155
320.7064
320.6188
320.6977
320.6277
320.3076
320.5773
320.3172
320.5672
320.2879
320.5585
320.6974
320.6127
320.6886
320.7156
320.6978
320.7068
320.7064
320.7066
320.6975
320.6277
320.6888
320.6187
320.3172
320.5682
320.3074
320.5498
320.2081
320.4789
320.6799
320.5329
320.6082
320.6979
320.6173
320.6259
320.6887
320.6256
320.6163
320.6098
320.6075
320.5372
320.2982
320.4867
320.2247
320.4276
319.9171
320.1624
320.5563
320.2147
320.2891
320.5738
320.2981
320.3064
320.5639
320.3059
320.2952
320.4848
320.286
320.2149
320.173
320.1652
319.9254
320.2349
320.0306
320.127
320.1252
320.4934
320.342
320.3779
320.4575
320.545
320.425
320.4299
320.5402
320.5456
320.4323
320.4305
320.5474
320.5133
320.4121
320.3974
320.5277
320.3371
320.2908
320.2222
320.4069
320.4825
320.3318
320.4484
320.3659
320.7486
320.6778
320.7142
320.7122
320.8
320.7608
320.7655
320.7953
320.8012
320.7682
320.7666
320.8028
320.7704
320.7497
320.7356
320.7844
320.593
320.6292
320.5581
320.6641
320.5325
320.4114
320.5275
320.4165
320.7978
320.7567
320.793
320.7615
320.8495
320.8398
320.8446
320.8446
320.8509
320.8475
320.846
320.8524
320.8203
320.8294
320.8155
320.8343
320.6436
320.7094
320.6386
320.7144
320.5352
320.4206
320.5364
320.4193
320.8004
320.7652
320.8015
320.764
320.852
320.8483
320.8532
320.8472
320.8535
320.8561
320.8546
320.855
320.8229
320.838
320.8241
320.8369
320.6463
320.7182
320.6475
320.717
320.5047
320.4025
320.5188
320.3883
320.7707
320.7482
320.7846
320.7343
320.8222
320.8314
320.8362
320.8174
320.8235
320.839
320.8375
320.825
320.7928
320.8208
320.8069
320.8068
320.6154
320.7007
320.6298
320.6865
320.3272
320.2814
320.3978
320.2122
320.5897
320.6263
320.6626
320.5535
320.6411
320.7092
320.7139
320.6363
320.6418
320.7164
320.7148
320.6435
320.61
320.6976
320.6835
320.6243
320.433
320.577
320.506
320.5036
320.0044
320.0038
320.0997
320.2518
320.3167
320.3527
320.3042
320.3999
320.4049
320.3053
320.4078
320.4062
320.2727
320.3886
320.3743
320.0981
320.2681
320.1989
320.3098
320.2425
320.3438
320.5698
320.5677
320.6044
320.6226
320.6524
320.6575
320.6246
320.6609
320.6596
320.5939
320.6429
320.629
320.4164
320.5222
320.4515
320.3889
320.2931
320.3939
320.6496
320.6176
320.6544
320.7031
320.7028
320.708
320.7054
320.7117
320.7104
320.675
320.6939
320.68
320.4978
320.5734
320.5029
320.3978
320.2959
320.3966
320.6582
320.6203
320.6571
320.7118
320.7055
320.7107
320.7142
320.7144
320.7131
320.6838
320.6966
320.6827
320.5069
320.5761
320.5057
320.3801
320.2649
320.366
320.6408
320.59
320.6268
320.6942
320.6749
320.68
320.6965
320.6836
320.6823
320.6661
320.6657
320.6518
320.4887
320.5449
320.4742
320.259
320.089
320.189
320.5177
320.4092
320.4454
320.5703
320.4928
320.4978
320.572
320.5008
320.4993
320.541
320.4821
320.4679
320.3639
320.3615
320.2916
320.3311
320.2896
320.2176
320.4047
320.3279
320.2819
320.2128
320.3983
320.4262
320.5731
320.5009
320.4976
320.2767
320.0666
320.1182
320.1173
320.16
320.1587
320.2322
320.3742
320.3199
320.2064
320.4013
320.2488
320.447
320.3289
320.3715
320.3132
320.2034
320.3963
320.245
320.4414
320.3265
320.4714
320.6172
320.4992
320.4964
320.5454
320.5424
320.4256
320.5169
320.4162
320.4015
320.5315
320.5903
320.6267
320.5541
320.663
320.6137
320.701
320.6283
320.6865
320.5349
320.3717
320.3647
320.4534
320.4074
320.4992
320.4891
320.5582
320.4455
320.3882
320.5271
320.4309
320.5727
320.5125
320.634
320.6702
320.5518
320.6598
320.5981
320.7063
320.5877
320.6573
320.7441
320.6256
320.6833
320.6718
320.7296
320.6111
320.5473
320.433
320.4323
320.548
320.6416
320.7096
320.6369
320.7143
320.644
320.7174
320.6447
320.7166
320.5861
320.4542
320.4166
320.5358
320.4591
320.5813
320.5406
320.5885
320.4622
320.419
320.5438
320.4615
320.5892
320.543
320.6851
320.7527
320.6343
320.7114
320.6803
320.7575
320.6391
320.6875
320.7606
320.6424
320.7139
320.6882
320.7598
320.6416
320.5423
320.4213
320.427
320.5368
320.6424
320.7169
320.6441
320.7152
320.6392
320.7068
320.6338
320.7121
320.587
320.4616
320.4176
320.5434
320.4599
320.5887
320.5418
320.5839
320.451
320.4143
320.5333
320.4565
320.5785
320.5387
320.6862
320.7603
320.642
320.713
320.6878
320.7588
320.6405
320.6832
320.7507
320.6324
320.7101
320.678
320.7558
320.6375
320.4908
320.3405
320.3747
320.4567
320.6107
320.6981
320.6249
320.6839
320.5883
320.6277
320.5543
320.6617
320.5555
320.4419
320.3853
320.5245
320.4274
320.5696
320.5104
320.5333
320.3711
320.3629
320.4547
320.4049
320.4997
320.4883
320.6553
320.7422
320.6237
320.6827
320.6693
320.7283
320.6098
320.6333
320.6728
320.5542
320.6608
320.5997
320.7064
320.5878
320.2451
320.0408
320.135
320.1384
320.4338
320.5775
320.5043
320.5066
320.3403
320.2999
320.2288
320.4124
320.3812
320.3219
320.2121
320.4055
320.254
320.4504
320.3364
320.2872
320.0764
320.1264
320.1293
320.1681
320.1716
320.2426
320.4802
320.6232
320.5048
320.5072
320.5503
320.5527
320.4349
320.3843
320.3309
320.2179
320.4107
320.2606
320.4559
320.3392
320.5824
320.624
320.5482
320.6583
320.5049
320.4027
320.3884
320.5189
320.6046
320.6945
320.6806
320.6186
320.5247
320.3627
320.4459
320.3549
320.491
320.3966
320.4797
320.6262
320.6675
320.5464
320.6551
320.5924
320.7015
320.5802
320.5468
320.433
320.3772
320.5156
320.4189
320.5607
320.5017
320.6482
320.7372
320.6771
320.616
320.7235
320.662
320.6023
320.7721
320.7522
320.7377
320.7867
320.7709
320.7483
320.7344
320.7847
320.7944
320.8229
320.809
320.8083
320.7911
320.7209
320.7106
320.7085
320.757
320.7549
320.7448
320.8146
320.795
320.7342
320.7831
320.7804
320.8292
320.7684
320.8132
320.7906
320.7306
320.7807
320.7769
320.8269
320.7669
320.8367
320.865
320.8052
320.8043
320.8512
320.8504
320.7906
320.8024
320.7686
320.7679
320.8032
320.8223
320.8315
320.8176
320.8363
320.8247
320.8395
320.8255
320.8387
320.8426
320.8035
320.7624
320.7918
320.8083
320.8378
320.7967
320.845
320.8116
320.7649
320.8002
320.8107
320.8459
320.7992
320.8647
320.8736
320.814
320.8328
320.8599
320.8785
320.819
320.8671
320.8818
320.8225
320.8354
320.868
320.8809
320.8215
320.7982
320.7583
320.7636
320.793
320.8236
320.8391
320.8252
320.8376
320.8207
320.8296
320.8155
320.8347
320.8442
320.8112
320.7642
320.8
320.8098
320.8456
320.7986
320.8413
320.8019
320.7613
320.7909
320.8069
320.8364
320.7959
320.8664
320.8816
320.8223
320.8349
320.8678
320.8802
320.821
320.8636
320.8725
320.8133
320.8322
320.8587
320.8775
320.8182
320.7482
320.6794
320.7134
320.7143
320.793
320.821
320.8069
320.807
320.7708
320.751
320.7369
320.7849
320.8142
320.7934
320.7341
320.7825
320.7797
320.828
320.7688
320.7924
320.7242
320.7123
320.7134
320.7578
320.7588
320.747
320.8366
320.8642
320.805
320.8053
320.8503
320.8505
320.7913
320.8148
320.7953
320.7359
320.7835
320.7813
320.8287
320.7695
320.4986
320.3511
320.4637
320.3862
320.6157
320.7009
320.6867
320.63
320.5215
320.424
320.4094
320.536
320.6384
320.6745
320.5584
320.6637
320.6038
320.7091
320.593
320.5415
320.3818
320.4617
320.374
320.5068
320.4167
320.4964
320.661
320.7457
320.6862
320.6299
320.7316
320.6751
320.6157
320.5642
320.4542
320.397
320.5335
320.4397
320.5785
320.5192
320.632
320.7029
320.6271
320.7077
320.5353
320.4206
320.4193
320.5365
320.6346
320.7115
320.7103
320.6358
320.574
320.4416
320.5241
320.405
320.5691
320.4467
320.529
320.6751
320.7455
320.6244
320.7039
320.6703
320.7502
320.6292
320.5767
320.4507
320.4078
320.5328
320.4495
320.5778
320.5316
320.6777
320.7539
320.7065
320.6329
320.7528
320.6788
320.6318
320.8214
320.8312
320.8166
320.836
320.8004
320.7652
320.7641
320.8015
320.824
320.8397
320.8386
320.8251
320.8398
320.7989
320.7889
320.7573
320.8351
320.8036
320.7937
320.8633
320.8732
320.8126
320.8321
320.8586
320.8779
320.8174
320.8423
320.8072
320.7599
320.7973
320.8061
320.8434
320.7962
320.8658
320.8815
320.8347
320.821
320.8804
320.8669
320.8199
320.8519
320.8479
320.8471
320.8527
320.852
320.8483
320.8472
320.8532
320.8545
320.8565
320.8553
320.8556
320.8915
320.8819
320.8412
320.8409
320.8867
320.8866
320.8459
320.894
320.8901
320.8437
320.8496
320.8892
320.8949
320.8485
320.894
320.8902
320.8435
320.8496
320.8891
320.8951
320.8485
320.8965
320.8985
320.8521
320.8522
320.8974
320.8976
320.8511
320.848
320.838
320.8431
320.8428
320.8535
320.8561
320.855
320.8546
320.8506
320.8466
320.8455
320.8517
320.8933
320.8899
320.8433
320.8494
320.8886
320.8947
320.8481
320.8906
320.8809
320.8406
320.8405
320.8858
320.8856
320.8454
320.8959
320.8983
320.852
320.8518
320.8972
320.897
320.8507
320.8931
320.8893
320.8431
320.8491
320.8882
320.8942
320.848
320.7982
320.7595
320.7934
320.7644
320.823
320.838
320.8369
320.8241
320.8009
320.7682
320.767
320.802
320.8637
320.8725
320.8137
320.8322
320.8589
320.8773
320.8185
320.8419
320.8037
320.7919
320.7633
320.8371
320.8085
320.7968
320.8662
320.881
320.8348
320.8223
320.8799
320.8673
320.8212
320.8445
320.8122
320.766
320.8005
320.8111
320.8456
320.7994
320.5499
320.433
320.5448
320.4383
320.6464
320.7182
320.7171
320.6475
320.5527
320.4424
320.4411
320.5539
320.6886
320.7541
320.6385
320.7138
320.6837
320.759
320.6435
320.5923
320.4632
320.5423
320.4259
320.5872
320.4684
320.5474
320.6913
320.7628
320.7164
320.6474
320.7616
320.6925
320.6462
320.5951
320.4725
320.4288
320.5514
320.4713
320.5963
320.5502
320.6346
320.7115
320.6358
320.7103
320.5325
320.4113
320.4165
320.5274
320.6319
320.7028
320.7077
320.627
320.5767
320.4506
320.5328
320.4077
320.5778
320.4494
320.5316
320.6777
320.7538
320.6329
320.7064
320.6788
320.7527
320.6318
320.574
320.4416
320.405
320.524
320.4466
320.569
320.5289
320.6751
320.7454
320.7039
320.6243
320.7501
320.6702
320.6291
320.8239
320.8397
320.8251
320.8385
320.7978
320.7566
320.7614
320.793
320.8213
320.8311
320.8359
320.8165
320.8423
320.8072
320.7973
320.7598
320.8434
320.8061
320.7962
320.8658
320.8815
320.821
320.8346
320.8669
320.8804
320.8199
320.8398
320.7988
320.7573
320.7889
320.8035
320.835
320.7936
320.8633
320.8731
320.8321
320.8125
320.8779
320.8585
320.8173
320.8544
320.8565
320.8556
320.8553
320.8494
320.8397
320.8446
320.8445
320.8518
320.8478
320.8527
320.847
320.894
320.8902
320.8496
320.8435
320.8951
320.8891
320.8485
320.8965
320.8985
320.8522
320.8521
320.8976
320.8974
320.8511
320.8914
320.8818
320.8409
320.8411
320.8865
320.8866
320.8459
320.8939
320.89
320.8495
320.8437
320.8948
320.8891
320.8485
320.8505
320.8466
320.8517
320.8454
320.8508
320.8475
320.8523
320.846
320.8479
320.8379
320.8428
320.843
320.8959
320.8983
320.8518
320.852
320.897
320.8972
320.8507
320.8931
320.8893
320.8491
320.8431
320.8942
320.8882
320.848
320.8933
320.8898
320.8493
320.8432
320.8946
320.8885
320.8481
320.8905
320.8808
320.8405
320.8405
320.8856
320.8857
320.8454
320.8008
320.7682
320.802
320.767
320.8203
320.8293
320.8342
320.8154
320.7982
320.7594
320.7643
320.7933
320.8662
320.881
320.8222
320.8348
320.8673
320.8798
320.8211
320.8445
320.8122
320.8005
320.7659
320.8456
320.8111
320.7994
320.8636
320.8724
320.8321
320.8136
320.8773
320.8588
320.8185
320.8419
320.8036
320.7633
320.7918
320.8084
320.837
320.7967
320.5526
320.4424
320.5539
320.4411
320.6435
320.7093
320.7143
320.6385
320.5498
320.4328
320.4381
320.5446
320.6912
320.7627
320.6473
320.7164
320.6924
320.7616
320.6461
320.595
320.4725
320.5514
320.4287
320.5962
320.4712
320.5501
320.6885
320.754
320.7137
320.6383
320.7589
320.6835
320.6434
320.5922
320.463
320.4258
320.5421
320.4683
320.5871
320.5473
320.6045
320.6944
320.6185
320.6804
320.4823
320.3314
320.3657
320.4481
320.5821
320.6237
320.6581
320.5478
320.5466
320.4329
320.5155
320.377
320.5606
320.4187
320.5015
320.6481
320.7371
320.6159
320.6769
320.6619
320.7233
320.6021
320.5245
320.3624
320.3547
320.4455
320.3964
320.4906
320.4794
320.626
320.6672
320.6548
320.546
320.7012
320.5921
320.58
320.7942
320.8228
320.8082
320.8088
320.7484
320.6775
320.712
320.7139
320.7719
320.7519
320.7865
320.7374
320.813
320.7905
320.7805
320.7304
320.8268
320.7768
320.7667
320.8365
320.8649
320.8042
320.8051
320.8503
320.8511
320.7904
320.7909
320.7205
320.7083
320.7103
320.7547
320.7567
320.7446
320.8144
320.7946
320.7828
320.7338
320.8289
320.7801
320.7682
320.8246
320.8394
320.8386
320.8254
320.7998
320.7605
320.795
320.7652
320.8021
320.7683
320.8029
320.7675
320.8645
320.8735
320.8327
320.8139
320.8783
320.8597
320.8188
320.867
320.8817
320.8353
320.8223
320.8808
320.8679
320.8214
320.8423
320.8032
320.7916
320.7621
320.8375
320.808
320.7965
320.8448
320.8112
320.8
320.7645
320.8456
320.8104
320.799
320.8205
320.8294
320.8346
320.8154
320.801
320.7678
320.8025
320.7663
320.798
320.758
320.7928
320.7632
320.8662
320.8815
320.8348
320.8221
320.8801
320.8676
320.8208
320.8634
320.8724
320.8321
320.8132
320.8773
320.8585
320.8181
320.8439
320.8109
320.7997
320.7638
320.8453
320.8095
320.7984
320.8411
320.8016
320.7907
320.761
320.8361
320.8066
320.7956
320.7706
320.7508
320.7848
320.7367
320.7702
320.7493
320.7842
320.7353
320.748
320.679
320.714
320.713
320.8364
320.8641
320.8051
320.8048
320.8504
320.8501
320.7911
320.8146
320.7951
320.7833
320.7357
320.8286
320.7811
320.7693
320.814
320.7931
320.7823
320.7338
320.8277
320.7793
320.7686
320.7921
320.7238
320.7131
320.7119
320.7586
320.7574
320.7467
320.5212
320.4237
320.5357
320.409
320.5926
320.6288
320.6637
320.5576
320.4983
320.3506
320.3858
320.4632
320.6607
320.7455
320.6297
320.686
320.6749
320.7314
320.6154
320.5639
320.454
320.5333
320.3967
320.5783
320.4393
320.5189
320.6381
320.6741
320.6634
320.5579
320.7088
320.6033
320.5927
320.5411
320.3812
320.3736
320.4612
320.4162
320.5063
320.496
320.4256
320.5727
320.4972
320.5003
320.2341
320.0296
320.1244
320.1261
320.3304
320.2888
320.404
320.2167
320.3708
320.3127
320.3958
320.2027
320.4409
320.2443
320.3259
320.4707
320.6167
320.4959
320.4985
320.5419
320.5448
320.4249
320.2758
320.0654
320.1164
320.117
320.1578
320.159
320.2312
320.3733
320.3189
320.4004
320.2052
320.4462
320.2478
320.3279
320.6132
320.7006
320.6861
320.6277
320.4927
320.3412
320.4567
320.3771
320.5162
320.4154
320.5308
320.4007
320.6334
320.6698
320.6593
320.5512
320.7058
320.5975
320.587
320.6567
320.7437
320.6828
320.625
320.7292
320.6712
320.6104
320.5341
320.3708
320.4526
320.3636
320.4984
320.4065
320.4883
320.5574
320.4446
320.5262
320.3871
320.5719
320.4299
320.5116
320.6434
320.7169
320.7162
320.6441
320.5443
320.4242
320.5395
320.4291
320.5466
320.4321
320.5473
320.4314
320.6845
320.7523
320.7109
320.6337
320.757
320.6797
320.6385
320.6868
320.7602
320.7134
320.6418
320.7594
320.6876
320.6409
320.5853
320.4533
320.5349
320.4155
320.5805
320.4582
320.5398
320.5877
320.4613
320.543
320.4179
320.5884
320.4605
320.5422
320.6386
320.7064
320.7117
320.6332
320.5449
320.4315
320.5467
320.4296
320.5416
320.4205
320.536
320.4262
320.6856
320.7598
320.7125
320.6414
320.7583
320.6872
320.6399
320.6826
320.7503
320.7096
320.6317
320.7554
320.6773
320.6369
320.5862
320.4607
320.5425
320.4165
320.5879
320.4589
320.5409
320.5831
320.45
320.5325
320.4132
320.5777
320.4556
320.5378
320.5877
320.6272
320.6612
320.5536
320.5125
320.4112
320.5269
320.3965
320.49
320.3396
320.4559
320.3738
320.6547
320.7417
320.6822
320.6231
320.7279
320.6687
320.6091
320.6327
320.6723
320.6603
320.5535
320.7059
320.599
320.5871
320.5547
320.4409
320.5236
320.3842
320.5688
320.4264
320.5095
320.5325
320.3701
320.4537
320.3617
320.4988
320.4039
320.4874
320.3395
320.2992
320.4118
320.228
320.3362
320.2899
320.4061
320.2211
320.2442
320.0397
320.1374
320.134
320.4794
320.6227
320.5066
320.5041
320.5521
320.5496
320.4341
320.3835
320.3302
320.4101
320.217
320.4553
320.2597
320.3384
320.3803
320.3208
320.4045
320.2109
320.4495
320.2529
320.3354
320.2862
320.0752
320.1282
320.1251
320.1705
320.167
320.2416
320.0923
320.264
320.1917
320.0897
320.2595
320.1897
320.3567
320.3541
320.2834
320.2754
320.391
320.3763
320.4099
320.5181
320.4461
320.4845
320.5419
320.4698
320.3067
320.4082
320.4074
320.4934
320.5707
320.4984
320.5018
320.5733
320.501
320.302
320.3976
320.403
320.5015
320.5725
320.5
320.4916
320.5695
320.4969
320.2501
320.318
320.3519
320.4827
320.5415
320.4686
320.4124
320.5192
320.4463
320.0124
320.0145
320.1095
320.3622
320.3645
320.2923
320.103
320.2731
320.2016
320.4049
320.5136
320.439
320.265
320.3802
320.3662
320.536
320.4754
320.4614
320.5937
320.6433
320.6284
320.5902
320.6409
320.6269
320.666
320.665
320.651
320.6253
320.6611
320.6601
320.6751
320.6943
320.6802
320.6839
320.697
320.6829
320.6217
320.6517
320.6567
320.6837
320.6966
320.6824
320.6746
320.6938
320.6796
320.5716
320.5727
320.6067
320.6659
320.6662
320.6519
320.5957
320.6439
320.6297
320.3247
320.2604
320.3598
320.5451
320.4889
320.4745
320.2837
320.3974
320.3829
320.484
320.5634
320.4889
320.2959
320.3978
320.3966
320.5661
320.4928
320.4916
320.6737
320.6936
320.6786
320.6203
320.6582
320.6571
320.6963
320.6824
320.6813
320.7058
320.7118
320.7107
320.7055
320.7118
320.7107
320.7145
320.7146
320.7134
320.7026
320.7026
320.7075
320.7144
320.7143
320.7131
320.7053
320.7114
320.7103
320.6528
320.6238
320.6577
320.6966
320.6839
320.6827
320.6266
320.6616
320.6605
320.4065
320.313
320.4117
320.5761
320.5069
320.5058
320.3159
320.4158
320.4146
320.4927
320.5661
320.4916
320.2931
320.3888
320.3938
320.5634
320.4839
320.4889
320.6824
320.6962
320.6812
320.6176
320.6495
320.6544
320.6935
320.6736
320.6785
320.7146
320.7145
320.7134
320.7027
320.703
320.7079
320.7118
320.7057
320.7107
320.7114
320.7053
320.7103
320.7116
320.7053
320.7103
320.7025
320.7025
320.7075
320.6616
320.6265
320.6605
320.6938
320.6749
320.6799
320.6238
320.6527
320.6577
320.4158
320.3159
320.4145
320.5733
320.4977
320.5028
320.3128
320.4063
320.4116
320.4752
320.5359
320.4612
320.2423
320.3094
320.3436
320.5134
320.4045
320.4388
320.6649
320.6658
320.6509
320.5675
320.5695
320.6042
320.6431
320.5934
320.6282
320.6969
320.6838
320.6827
320.6522
320.6223
320.6572
320.6609
320.6249
320.6599
320.6936
320.6744
320.6794
320.6607
320.6243
320.6593
320.6514
320.6214
320.6565
320.6438
320.5955
320.6295
320.6427
320.5935
320.6288
320.5725
320.5712
320.6065
320.3972
320.2834
320.3826
320.5219
320.416
320.4512
320.26
320.3243
320.3594
320.3536
320.356
320.2827
320.0029
320.0032
320.0987
320.2631
320.0911
320.1908
320.5415
320.4839
320.4691
320.3158
320.2506
320.3518
320.3901
320.2743
320.3754
320.5728
320.5012
320.5003
320.3991
320.3031
320.404
320.4074
320.3056
320.4065
320.569
320.491
320.4962
320.4069
320.3041
320.4053
320.3967
320.3008
320.4021
320.5187
320.4117
320.4456
320.3877
320.2715
320.3734
320.3171
320.2489
320.351
320.2725
320.1021
320.2008
320.2672
320.0968
320.1979
320.0135
320.0111
320.1085
)
;

boundaryField
{
    solid_to_air
    {
        type            compressible::turbulentTemperatureRadCoupledMixed;
        refValue        nonuniform List<scalar> 
1536
(
301.8064
302.0573
302.124
302.1367
302.1148
302.0462
301.8147
302.324
302.2363
302.1468
302.097
302.0806
301.8584
302.2912
302.1359
302.0503
301.9982
301.9891
301.8673
302.275
302.1155
302.0341
301.9807
301.9676
301.8498
302.3013
302.152
302.0636
302.0131
302.0069
301.7976
302.308
302.2729
302.1959
302.1473
302.1124
303.0317
303.0604
301.1897
301.2977
301.288
301.3525
301.3652
301.3787
301.3909
301.3733
301.3721
301.3318
301.2849
303.0977
301.2775
301.2047
302.0402
302.1941
302.2471
302.2173
302.0539
301.3855
301.3174
301.2614
302.1691
302.355
302.4194
302.382
302.1877
301.4446
301.3271
301.2716
302.188
302.3793
302.4453
302.4072
302.2083
301.4591
301.3088
301.2445
302.1271
302.3019
302.3619
302.3281
302.1446
301.4327
301.2645
301.1633
301.9493
302.0864
302.1327
302.1068
301.9604
301.3658
303.0313
301.2985
301.3537
301.3801
301.3747
301.3331
303.7395
301.4478
301.4544
301.5025
301.5177
301.5434
301.5476
301.5451
301.5376
301.4993
301.4794
303.676
303.7333
301.3773
302.0299
301.7982
302.2631
302.113
302.3084
302.2998
302.1374
302.2748
302.2165
302.1256
302.1975
302.159
302.0712
302.1478
302.1242
301.9517
302.1123
302.0916
303.8849
301.5687
301.3961
301.437
302.2937
301.8502
302.3132
302.267
302.3011
302.1909
302.1663
302.1531
302.0838
302.1075
302.0646
302.0253
302.083
302.0134
302.0014
302.0949
302.0069
302.0944
301.5905
301.6449
301.4476
301.46
302.3089
301.8675
302.3039
302.1716
302.2742
302.1517
302.0692
302.117
302.0534
302.0117
302.0362
301.9958
301.9843
301.9824
301.9641
302.0908
301.9688
302.0859
301.6588
301.6757
301.46
301.4473
302.3031
301.8584
302.309
302.1498
302.2892
302.173
302.0524
302.1366
302.0704
301.9953
302.0522
302.013
301.9635
302.0004
301.9859
302.0864
301.991
302.091
301.6758
301.6593
301.4367
301.3956
302.3121
301.8145
302.2937
302.1893
302.3215
302.2688
302.0836
302.2351
302.1684
302.026
302.1474
302.1101
302.0022
302.0985
302.0859
302.0953
302.0822
302.0958
301.6456
301.5915
301.3768
303.7305
302.2626
301.8065
302.0312
303.7388
301.4492
302.2981
302.0584
302.1147
301.4559
301.5042
302.2161
302.1254
302.1391
301.5195
301.5454
302.1599
302.1381
302.1272
301.5497
301.5473
302.1253
302.1162
302.0725
301.5396
301.5014
302.0928
302.0475
301.9524
301.5699
301.4813
303.8835
303.6754
301.2869
301.2383
301.2646
301.1627
301.8611
301.3394
301.3409
301.9477
302.0418
301.3746
301.3856
302.0845
302.1213
301.3788
301.3869
302.1309
302.1305
301.3458
301.3299
302.1049
302.0333
303.0079
301.251
301.9588
301.3649
301.3824
301.9413
301.3089
301.2443
302.0175
302.1444
302.1263
302.2458
302.2355
302.3011
302.3489
302.2457
302.3613
302.3603
302.1354
302.3274
302.2339
301.4444
302.1437
301.4321
301.5038
302.0529
301.3271
301.2716
302.0693
302.2948
302.1875
302.3171
302.4059
302.3788
302.4311
302.4171
302.4449
302.4434
302.282
302.4068
302.3046
301.5304
302.2078
301.459
301.5456
302.069
301.3173
301.2616
302.0538
302.3173
302.1692
302.2955
302.4316
302.3552
302.4065
302.4436
302.4196
302.418
302.3045
302.3822
302.2828
301.5459
302.1878
301.445
301.5307
302.0174
301.2774
301.2051
301.9429
302.2462
302.0412
302.1463
302.3494
302.1954
302.2374
302.3606
302.2484
302.2478
302.2341
302.2185
302.1371
301.5047
302.0548
301.3863
301.4454
301.8616
303.058
301.1901
301.2876
301.2396
302.0429
301.2896
301.3404
301.3427
302.1226
301.3672
301.3759
301.3875
302.1317
301.393
301.3802
301.3888
302.0341
301.3741
301.3471
301.3316
301.3839
301.2866
303.0957
303.0071
301.2519
301.9343
301.9863
301.8278
303.279
303.2797
301.9602
301.7817
302.155
302.0793
302.1264
301.671
301.6871
302.1792
302.1302
302.1824
301.7318
301.7411
302.1525
302.1352
302.1616
301.7553
301.7557
302.1101
302.1052
302.1231
301.7415
301.7317
302.004
302.024
302.0473
301.6815
301.6854
303.3984
302.0025
302.0454
302.0251
301.828
301.5643
301.5783
302.3015
302.3184
302.3226
302.1745
302.2109
302.2047
302.0957
302.1328
302.1123
302.0554
302.0919
302.0623
302.0377
302.0567
302.0542
301.7936
301.8059
302.0829
302.0797
301.8622
301.6124
301.6179
302.2405
302.2536
302.2845
302.0989
302.1103
302.1274
302.028
302.0373
302.0436
301.9818
301.9922
301.9905
301.9749
301.9838
301.9799
301.8307
301.8336
302.0858
302.0881
301.866
301.6238
301.622
302.2341
302.2328
302.2793
302.0943
302.0913
302.122
302.0249
302.0215
302.0401
301.9775
301.9738
301.9864
301.9692
301.9643
301.9737
301.8374
301.8366
302.0609
302.0719
301.8413
301.6023
301.5923
302.2833
302.2685
302.3128
302.1468
302.1261
302.176
302.0705
302.0508
302.0858
302.0291
302.008
302.0355
302.0184
301.9999
302.0291
301.8248
301.818
301.9532
301.9936
301.7946
301.5478
301.5668
302.2656
302.3225
302.2392
302.249
302.2541
302.2597
302.197
302.1839
302.2079
302.152
302.1414
302.161
302.0567
302.0768
302.1022
301.7804
301.7971
303.2796
301.9617
301.6724
301.6886
301.7335
301.7429
301.7573
301.7577
301.7435
301.7338
301.6834
301.6871
301.8923
301.2852
301.5748
301.2257
301.4913
301.9649
301.305
301.3113
301.9423
302.0521
301.3719
301.3615
302.0449
302.0816
301.392
301.3808
302.0794
302.052
301.3651
301.367
302.0597
301.9106
301.2777
301.3455
301.9497
301.9587
301.9421
301.2177
301.2888
302.1061
302.0765
302.0697
302.2433
302.2075
302.2307
302.2895
302.2519
302.2857
302.2407
302.2053
302.2549
302.0173
301.9906
302.0837
302.0232
302.0225
301.2653
301.3222
302.2162
302.2126
302.1737
302.3762
302.3714
302.361
302.4306
302.4253
302.4254
302.372
302.3668
302.3886
302.1165
302.1116
302.1927
302.0323
302.0333
301.2712
301.3257
302.2316
302.2324
302.1883
302.3953
302.3957
302.3796
302.4511
302.4514
302.4457
302.3908
302.3915
302.4076
302.1306
302.1304
302.208
301.9887
301.9957
301.2382
301.3006
302.1554
302.1684
302.1161
302.3017
302.3173
302.2877
302.3513
302.3677
302.3468
302.2983
302.3142
302.3134
302.0618
302.0724
302.1324
301.8496
301.8806
301.169
301.286
301.9281
301.9814
301.8994
302.0346
302.0976
302.0243
302.071
302.1367
302.0671
302.0346
302.0964
302.0437
301.863
301.9046
301.9107
301.6601
301.7018
303.7851
301.9311
302.0422
301.5395
301.5208
301.6181
301.719
301.7047
301.5459
301.4692
301.5618
301.5982
301.4877
301.582
301.7529
301.7482
301.6142
301.5284
301.6257
301.6412
301.5374
301.6351
301.7494
301.7535
301.6452
301.5494
301.6466
301.6409
301.5483
301.6449
301.7013
301.7175
301.6321
301.5286
301.6217
301.5881
301.5145
301.6056
303.2582
301.8577
301.5652
301.4938
301.577
303.7771
301.7607
301.8485
301.5484
301.5675
303.8142
301.7137
301.7814
301.4326
301.4043
301.4611
302.0094
302.0085
302.0791
301.9532
301.7948
301.9939
302.0851
302.1865
302.1538
302.1713
302.099
302.1807
302.2645
302.2399
302.3212
302.272
302.2725
302.3154
302.1737
302.1348
302.1689
302.2473
302.2615
302.2519
302.2334
302.2234
302.234
302.1422
302.1296
302.1338
302.1943
302.2093
302.1814
302.1809
302.1736
302.1692
302.0934
302.0878
302.0744
302.149
302.1616
302.1385
302.1356
302.124
302.1313
301.9719
302.0194
302.0669
302.0552
302.1024
302.0744
301.996
302.0761
302.0178
301.7795
301.7966
303.9467
301.9709
302.1001
301.691
301.6054
301.7283
301.6028
301.5928
301.4522
301.4107
301.4676
301.4959
301.4264
301.4848
302.2107
302.1905
302.3069
302.0609
301.8413
302.0721
302.2235
302.3121
302.2328
302.2677
302.2953
302.2366
302.2811
302.3127
302.2658
302.2437
302.2126
302.2279
302.1491
302.1879
302.1294
302.1447
302.1764
302.1233
302.1214
302.1048
302.1036
302.0801
302.1188
302.0707
302.0683
302.0856
302.0481
302.0536
302.0462
302.0358
302.0492
302.0863
302.0497
302.0267
302.0348
302.0051
302.0211
302.024
302.0009
302.0031
302.012
302.0985
302.0175
302.0288
301.9976
301.9918
302.0972
301.9791
301.8244
301.8178
301.7141
301.6102
301.7353
301.7715
301.6306
301.7567
301.6239
301.6222
301.5077
301.4536
301.5139
301.5209
301.4581
301.5189
302.2357
302.236
302.305
302.0855
301.8657
302.0879
302.2365
302.3041
302.2392
302.195
302.211
302.1586
302.232
302.2789
302.2293
302.1882
302.1554
302.1891
302.0772
302.0901
302.0587
302.093
302.1225
302.0888
302.0725
302.0571
302.072
302.0125
302.0239
302.0016
302.0239
302.0405
302.0198
302.0086
301.9997
302.0072
301.9729
301.9857
301.9724
301.9767
301.9865
301.9721
301.9677
301.9688
301.9651
301.9614
301.9687
302.0887
301.9694
301.9742
301.9628
301.9578
302.0881
301.9534
301.8375
301.8367
301.7852
301.667
301.7934
301.802
301.6732
301.7995
301.6121
301.6177
301.5208
301.4581
301.5189
301.5074
301.4534
301.5136
302.2365
302.2391
302.3026
302.0822
301.8618
302.079
302.2351
302.3053
302.2354
302.1887
302.1892
302.1521
302.2378
302.2827
302.2496
302.1943
302.1606
302.2109
302.0732
302.0728