/*--------------------------------*- C++ -*----------------------------------*\
| =========                 |                                                 |
| \\      /  F ield         | OpenFOAM: The Open Source CFD Toolbox           |
|  \\    /   O peration     | Version:  2506                                  |
|   \\  /    A nd           | Website:  www.openfoam.com                      |
|    \\/     M anipulation  |                                                 |
\*---------------------------------------------------------------------------*/
FoamFile
{
    version     2.0;
    format      ascii;
    arch        "LSB;label=32;scalar=64";
    class       volScalarField;
    location    "60/airRegion";
    object      alphat;
}
// * * * * * * * * * * * * * * * * * * * * * * * * * * * * * * * * * * * * * //

dimensions      [1 -1 -1 0 0 0 0];

internalField   nonuniform List<scalar> 
260661
(
0.09812132
0.09765641
0.09825056
0.09695467
0.09701633
0.09704504
0.09705075
0.09705192
0.09705129
0.0970498
0.09704798
0.09704608
0.09704417
0.09704227
0.09704041
0.09703859
0.09703683
0.09703513
0.0970335
0.09703194
0.09703045
0.09702905
0.09702771
0.09702646
0.09702528
0.09702418
0.09702316
0.0970222
0.09702131
0.09702048
0.09701969
0.09701895
0.09701823
0.09701753
0.09701682
0.09701608
0.09701526
0.09701432
0.09701315
0.09701152
0.09700885
0.09700352
0.09699059
0.09695416
0.09683965
0.09644576
0.095007
0.08960808
0.07165167
0.01477875
0.09724597
0.09644331
0.09688013
0.09700062
0.09705669
0.09706882
0.09707091
0.09707035
0.09706829
0.09706549
0.0970624
0.09705922
0.09705603
0.09705287
0.09704978
0.09704676
0.09704383
0.097041
0.09703828
0.09703567
0.09703319
0.09703082
0.09702858
0.09702647
0.09702448
0.0970226
0.09702085
0.0970192
0.09701766
0.0970162
0.09701481
0.09701346
0.09701215
0.09701083
0.09700946
0.097008
0.09700639
0.09700452
0.09700225
0.09699926
0.09699484
0.09698717
0.09697094
0.09692963
0.0968086
0.09641593
0.09503281
0.08978298
0.06934996
0.01424049
0.09546446
0.09650074
0.09699161
0.09708523
0.09709582
0.09709477
0.09709151
0.09708667
0.09708077
0.09707437
0.09706781
0.09706127
0.09705483
0.09704852
0.09704238
0.09703642
0.09703068
0.09702514
0.09701984
0.09701476
0.09700992
0.09700531
0.09700095
0.09699682
0.09699293
0.09698927
0.09698582
0.09698257
0.09697949
0.09697656
0.09697374
0.09697098
0.09696823
0.09696543
0.09696249
0.09695931
0.09695577
0.09695169
0.09694678
0.09694057
0.09693212
0.09691912
0.09689547
0.09684301
0.09670393
0.09628214
0.0948647
0.08960293
0.06919232
0.01413071
0.09570681
0.09666628
0.09705023
0.09710423
0.09710249
0.09709599
0.09708776
0.09707794
0.09706715
0.09705594
0.09704464
0.09703345
0.09702245
0.09701172
0.0970013
0.09699121
0.09698148
0.09697211
0.09696312
0.09695452
0.09694632
0.09693852
0.09693111
0.09692412
0.09691751
0.09691129
0.09690542
0.09689989
0.09689463
0.09688961
0.09688474
0.09687997
0.09687518
0.09687026
0.09686508
0.09685945
0.09685317
0.09684594
0.09683732
0.09682662
0.09681255
0.09679228
0.09675869
0.09669166
0.09652955
0.09606983
0.09459705
0.08930581
0.06920746
0.01407886
0.09668741
0.09697799
0.09709692
0.09710609
0.09709876
0.09708785
0.09707415
0.09705848
0.09704173
0.09702453
0.09700728
0.09699021
0.09697347
0.09695714
0.09694127
0.0969259
0.09691106
0.09689678
0.09688307
0.09686993
0.0968574
0.09684547
0.09683415
0.09682345
0.09681335
0.09680383
0.09679487
0.0967864
0.09677835
0.09677066
0.09676319
0.09675585
0.09674846
0.09674086
0.09673283
0.09672412
0.09671439
0.0967032
0.09668995
0.09667369
0.09665276
0.09662374
0.09657849
0.09649503
0.09630827
0.09581049
0.09428592
0.08898054
0.06919058
0.01404422
0.09701327
0.09707021
0.09710099
0.09709824
0.09708815
0.09707246
0.0970527
0.09703047
0.09700694
0.09698289
0.09695881
0.09693497
0.09691156
0.0968887
0.09686646
0.09684489
0.09682405
0.09680395
0.09678464
0.09676612
0.09674843
0.09673158
0.0967156
0.09670049
0.09668624
0.09667282
0.09666018
0.09664826
0.09663695
0.09662613
0.09661564
0.0966053
0.09659491
0.09658421
0.0965729
0.09656063
0.09654695
0.09653126
0.09651278
0.09649028
0.09646176
0.09642321
0.09636558
0.0962653
0.09605459
0.09552248
0.09395649
0.08865431
0.06915293
0.01401807
0.0970554
0.09707545
0.09709357
0.09708822
0.09707424
0.09705282
0.09702641
0.09699708
0.09696622
0.09693474
0.0969032
0.09687193
0.09684118
0.09681109
0.09678177
0.09675329
0.09672571
0.09669908
0.09667344
0.09664884
0.09662531
0.09660289
0.09658162
0.09656151
0.09654256
0.09652474
0.09650799
0.09649221
0.09647727
0.096463
0.09644918
0.09643558
0.09642191
0.09640784
0.09639298
0.09637688
0.09635895
0.09633847
0.09631444
0.09628541
0.09624901
0.09620076
0.0961308
0.09601428
0.09578153
0.09521986
0.09362232
0.08833536
0.06910241
0.01399697
0.09705323
0.09707081
0.09708663
0.09707795
0.0970588
0.09703104
0.09699758
0.09696081
0.09692228
0.09688298
0.09684355
0.09680441
0.09676583
0.096728
0.09669106
0.09665511
0.09662022
0.09658646
0.09655391
0.09652263
0.09649269
0.09646414
0.09643705
0.09641145
0.09638735
0.09636475
0.09634355
0.09632362
0.0963048
0.09628686
0.09626954
0.09625251
0.09623543
0.09621786
0.09619933
0.09617928
0.09615701
0.09613165
0.09610202
0.09606647
0.09602231
0.09596462
0.09588291
0.09575132
0.09549887
0.09491225
0.09329118
0.08802716
0.06904342
0.01397908
0.09705074
0.09706771
0.09708059
0.09706755
0.09704272
0.09700835
0.0969677
0.09692333
0.09687693
0.09682959
0.09678202
0.0967347
0.09668796
0.09664203
0.09659707
0.09655322
0.09651056
0.09646922
0.09642929
0.09639084
0.09635399
0.09631884
0.09628548
0.09625398
0.09622439
0.09619669
0.09617079
0.09614654
0.09612371
0.09610202
0.09608113
0.09606064
0.09604012
0.09601906
0.09599688
0.09597291
0.09594635
0.0959162
0.09588114
0.09583931
0.09578777
0.09572126
0.09562871
0.0954835
0.09521368
0.09460595
0.09296723
0.0877309
0.06897913
0.01396334
0.0970493
0.09706519
0.09707472
0.0970571
0.09702652
0.09698555
0.09693771
0.09688572
0.0968314
0.09677593
0.0967201
0.09666445
0.09660935
0.09655508
0.09650184
0.09644977
0.09639903
0.09634974
0.09630201
0.09625599
0.09621182
0.09616966
0.09612966
0.09609195
0.09605658
0.09602357
0.09599283
0.09596417
0.09593731
0.09591189
0.09588749
0.09586362
0.09583976
0.0958153
0.0957896
0.09576188
0.09573123
0.09569654
0.09565636
0.09560868
0.09555036
0.09547583
0.09537356
0.09521617
0.09493075
0.09430395
0.09264983
0.08744201
0.06890836
0.013949
0.09704791
0.09706261
0.09706886
0.09704677
0.09701057
0.09696315
0.09690824
0.09684873
0.09678655
0.09672298
0.09665888
0.09659486
0.09653133
0.09646861
0.09640691
0.09634645
0.09628738
0.09622986
0.09617405
0.09612013
0.09606831
0.09601881
0.09597186
0.09592765
0.09588631
0.09584786
0.09581223
0.09577918
0.09574837
0.09571935
0.0956916
0.09566454
0.09563754
0.09560991
0.09558091
0.09554969
0.09551524
0.09547636
0.0954315
0.09537853
0.09531415
0.09523253
0.09512166
0.0949532
0.09465247
0.09400424
0.09232724
0.08713581
0.06881072
0.01393528
0.0970464
0.09705993
0.09706309
0.09703672
0.09699513
0.09694148
0.09687971
0.09681286
0.09674299
0.09667146
0.09659921
0.09652688
0.09645495
0.09638376
0.09631359
0.09624463
0.0961771
0.09611117
0.09604705
0.09598498
0.09592524
0.09586813
0.09581398
0.09576308
0.09571563
0.09567171
0.09563122
0.09559391
0.09555933
0.09552694
0.0954961
0.09546612
0.09543627
0.09540577
0.09537378
0.09533938
0.09530151
0.09525886
0.09520984
0.0951522
0.09508255
0.09499481
0.0948764
0.09469741
0.09437928
0.0936992
0.09196998
0.08674255
0.06861602
0.01391558
0.09704484
0.09705724
0.0970575
0.09702708
0.09698038
0.09692078
0.09685243
0.09677852
0.09670121
0.09662195
0.09654174
0.09646128
0.09638108
0.09630153
0.09622293
0.0961455
0.09606946
0.09599505
0.0959225
0.09585212
0.09578426
0.09571934
0.0956578
0.09560006
0.09554644
0.09549708
0.09545189
0.09541052
0.09537245
0.095337
0.09530342
0.09527087
0.09523852
0.0952055
0.0951709
0.0951337
0.0950928
0.09504686
0.09499421
0.09493257
0.09485846
0.09476562
0.09464085
0.09445221
0.09411498
0.09339068
0.09156473
0.08620654
0.06833774
0.01392839
0.09704328
0.09705461
0.09705217
0.09701796
0.09696646
0.09690124
0.09682665
0.09674601
0.09666158
0.0965749
0.09648702
0.09639869
0.09631046
0.09622276
0.09613589
0.0960501
0.09596564
0.09588277
0.09580176
0.09572298
0.0956469
0.09557404
0.095505
0.09544038
0.09538061
0.09532593
0.09527623
0.09523111
0.0951899
0.09515179
0.09511585
0.09508113
0.09504668
0.09501153
0.0949747
0.09493511
0.09489161
0.09484285
0.09478711
0.09472211
0.09464435
0.09454753
0.09441824
0.09422356
0.09387532
0.09312422
0.09123229
0.0857701
0.06820388
0.01404334
0.09704177
0.0970521
0.09704716
0.09700943
0.09695345
0.09688298
0.09680254
0.09671557
0.09662442
0.09653069
0.09643551
0.09633967
0.09624375
0.0961482
0.09605333
0.09595942
0.09586673
0.09577553
0.09568615
0.09559902
0.09551471
0.0954339
0.09535735
0.09528586
0.09522004
0.09516022
0.09510631
0.09505779
0.09501385
0.0949735
0.09493563
0.09489917
0.09486302
0.09482614
0.09478746
0.09474588
0.0947002
0.09464906
0.09459075
0.09452297
0.09444228
0.09434251
0.09421064
0.0940152
0.09367282
0.09294905
0.09114216
0.08586114
0.06823621
0.0139191
0.09704035
0.09704975
0.09704251
0.09700155
0.09694144
0.09686612
0.09678025
0.09668739
0.09658997
0.09648966
0.09638763
0.09628471
0.09618152
0.09607852
0.09597604
0.09587436
0.09577375
0.0956745
0.09557698
0.0954817
0.09538931
0.09530064
0.09521669
0.09513846
0.09506678
0.09500209
0.0949443
0.09489278
0.09484653
0.09480437
0.094765
0.09472718
0.09468971
0.09465145
0.09461128
0.09456807
0.09452061
0.0944675
0.09440707
0.09433706
0.09425407
0.09415215
0.09401891
0.09382497
0.09349353
0.09280805
0.09110497
0.08601877
0.06840054
0.01390065
0.09703904
0.09704758
0.09703826
0.09699436
0.09693049
0.09685074
0.09675991
0.09666164
0.09655845
0.09645207
0.09634371
0.09623424
0.0961243
0.09601435
0.09590476
0.0957958
0.09568772
0.09558086
0.09547559
0.09537249
0.09527233
0.09517611
0.09508502
0.09500032
0.09492307
0.09485384
0.09479254
0.09473842
0.09469027
0.09464666
0.09460613
0.09456729
0.09452881
0.09448948
0.09444812
0.09440359
0.09435465
0.09429995
0.09423781
0.09416602
0.09408126
0.0939777
0.09384326
0.09364946
0.09332194
0.09264982
0.0909784
0.08595308
0.06837749
0.01392244
0.09703785
0.09704562
0.09703443
0.0969879
0.09692065
0.09683693
0.09674162
0.09663847
0.09653006
0.09641818
0.09630406
0.09618863
0.09607255
0.09595628
0.09584017
0.09572453
0.0956096
0.09549571
0.09538328
0.09527293
0.09516552
0.09506224
0.09496448
0.09487374
0.09479132
0.09471796
0.09465353
0.09459715
0.09454741
0.09450264
0.09446121
0.09442156
0.09438227
0.09434207
0.09429974
0.09425412
0.09420398
0.09414797
0.09408447
0.09401132
0.09392525
0.09382046
0.09368476
0.09348876
0.09315436
0.09245677
0.09069665
0.08543693
0.06760155
0.01400921
0.0970368
0.09704388
0.09703105
0.09698219
0.09691196
0.09682472
0.09672545
0.09661798
0.09650494
0.09638817
0.09626896
0.09614823
0.09602668
0.09590477
0.09578289
0.09566129
0.09554027
0.09542012
0.0953013
0.09518447
0.0950706
0.09496098
0.09485723
0.09476107
0.09467404
0.09459699
0.0945298
0.09447143
0.09442028
0.0943745
0.09433227
0.0942919
0.0942519
0.09421092
0.09416774
0.09412118
0.09407002
0.09401293
0.09394834
0.09387417
0.09378721
0.09368168
0.09354498
0.09334526
0.0929931
0.0922146
0.09010626
0.08357376
0.06351112
0.01411604
0.09703588
0.09704236
0.09702812
0.09697725
0.09690445
0.09681417
0.09671148
0.09660027
0.09648323
0.09636223
0.0962386
0.0961133
0.09598703
0.09586028
0.09573343
0.09560675
0.09548051
0.09535504
0.09523079
0.09510847
0.09498911
0.09487414
0.09476531
0.09466456
0.09457357
0.09449333
0.09442369
0.0943635
0.09431101
0.09426422
0.09422116
0.09418003
0.09413927
0.09409751
0.09405349
0.09400605
0.09395397
0.09389595
0.09383047
0.09375554
0.09366805
0.09356232
0.09342551
0.09322367
0.09285479
0.09197151
0.08921856
0.07905582
0.05026876
0.02091396
0.0970351
0.09704108
0.09702565
0.0969731
0.09689814
0.09680531
0.09669975
0.09658541
0.09646502
0.09634049
0.09621318
0.09608408
0.0959539
0.09582316
0.09569224
0.09556141
0.09543097
0.09530123
0.09517266
0.09504603
0.09492239
0.09480323
0.09469043
0.09458605
0.09449188
0.09440897
0.09433717
0.09427526
0.0942214
0.09417347
0.09412939
0.09408734
0.0940457
0.09400305
0.09395813
0.09390979
0.09385681
0.09379792
0.09373166
0.09365612
0.09356831
0.09346276
0.09332707
0.09312882
0.09277483
0.09197794
0.08980584
0.08315316
0.06319513
0.01407292
0.09703447
0.09704004
0.09702365
0.09696975
0.09689306
0.09679818
0.09669032
0.09657346
0.09645039
0.09632305
0.09619282
0.09606073
0.09592749
0.09579366
0.09565963
0.09552568
0.09539212
0.09525928
0.09512764
0.09499798
0.09487137
0.09474935
0.09463381
0.09452686
0.09443035
0.09434533
0.09427165
0.09420809
0.09415274
0.09410346
0.09405814
0.09401493
0.09397217
0.09392846
0.09388252
0.0938332
0.09377929
0.09371955
0.09365255
0.09357643
0.09348833
0.09338297
0.0932483
0.09305281
0.09270668
0.09194097
0.08992965
0.0840324
0.06596474
0.01395652
0.09703398
0.09703925
0.09702214
0.09696721
0.09688921
0.09679279
0.0966832
0.09656447
0.09643941
0.09631
0.09617764
0.09604337
0.09590797
0.09577198
0.09563583
0.09549983
0.09536429
0.09522955
0.09509613
0.09496479
0.09483661
0.0947131
0.09459613
0.09448775
0.09438977
0.09430321
0.09422796
0.09416278
0.09410581
0.09405494
0.09400813
0.09396348
0.09391937
0.0938744
0.09382729
0.09377688
0.09372198
0.09366136
0.09359359
0.09351686
0.09342838
0.09332294
0.09318859
0.09299347
0.09264439
0.09185205
0.08969294
0.08315916
0.06405538
0.01389168
0.09703365
0.09703871
0.0970211
0.09696548
0.09688661
0.09678917
0.09667843
0.09655847
0.09643213
0.09630139
0.09616769
0.09603211
0.09589543
0.09575824
0.09562097
0.09548398
0.0953476
0.09521219
0.09507828
0.09494661
0.09481823
0.0946946
0.09457747
0.09446879
0.09437023
0.09428275
0.09420622
0.0941395
0.09408082
0.09402819
0.09397963
0.09393331
0.09388764
0.09384123
0.09379282
0.09374123
0.09368528
0.09362373
0.09355518
0.09347777
0.09338873
0.09328289
0.09314837
0.09295398
0.09261058
0.09185052
0.08985064
0.08397722
0.06594737
0.01395759
0.09703347
0.09703842
0.09702056
0.09696459
0.09688528
0.09678732
0.09667604
0.0965555
0.09642857
0.09629727
0.09616305
0.096027
0.09588995
0.0957525
0.09561511
0.09547819
0.09534208
0.09520719
0.09507402
0.0949433
0.09481604
0.09469357
0.0945775
0.09446957
0.09437129
0.09428349
0.09420606
0.09413795
0.09407757
0.09402309
0.09397263
0.09392449
0.09387712
0.09382916
0.09377935
0.09372653
0.09366949
0.09360701
0.09353765
0.09345953
0.09336988
0.09326347
0.0931283
0.09293272
0.09258505
0.09180091
0.08965419
0.08305066
0.06316501
0.0140788
0.09703344
0.09703838
0.09702051
0.09696453
0.09688522
0.09678729
0.09667605
0.0965556
0.0964288
0.09629769
0.09616375
0.09602808
0.09589154
0.09575475
0.09561822
0.09548237
0.09534759
0.09521428
0.09508296
0.09495433
0.09482932
0.09470911
0.09459514
0.0944889
0.09439167
0.09430417
0.09422627
0.09415708
0.09409518
0.09403893
0.09398662
0.09393665
0.09388758
0.09383807
0.09378689
0.09373286
0.09367478
0.09361141
0.09354129
0.09346252
0.09337229
0.09326537
0.09312963
0.09293241
0.09257421
0.0917124
0.08900343
0.07895482
0.0503005
0.02094926
0.09703357
0.09703861
0.09702096
0.09696532
0.09688645
0.09678906
0.09667846
0.09655874
0.09643277
0.09630261
0.09616973
0.09603526
0.09590006
0.09576482
0.09563004
0.09549618
0.09536364
0.09523286
0.09510434
0.09497873
0.09485687
0.09473982
0.09462878
0.09452499
0.09442951
0.0943429
0.09426505
0.09419519
0.09413212
0.09407437
0.09402043
0.09396883
0.09391821
0.0938673
0.09381488
0.09375978
0.09370079
0.09363665
0.09356588
0.09348657
0.09339589
0.09328866
0.09315318
0.09295902
0.09261877
0.09186059
0.0897857
0.08331821
0.06338517
0.01413573
0.09703386
0.09703908
0.09702191
0.09696693
0.09688894
0.0967926
0.09668322
0.09656487
0.09644042
0.09631191
0.09618085
0.09604835
0.09591531
0.09578241
0.0956502
0.09551915
0.09538969
0.09526224
0.09513732
0.0950155
0.09489753
0.09478432
0.09467684
0.09457613
0.09448299
0.09439785
0.09432059
0.09425058
0.0941868
0.09412797
0.09407277
0.09401986
0.09396798
0.09391592
0.09386249
0.09380652
0.09374682
0.0936821
0.09361086
0.09353115
0.09344016
0.09333271
0.09319735
0.09300509
0.09267529
0.09196912
0.09014075
0.08468829
0.06670421
0.01411274
0.09703429
0.09703981
0.09702333
0.09696936
0.09689266
0.09679789
0.09669029
0.09657392
0.09645165
0.0963255
0.09619697
0.0960672
0.09593706
0.09580726
0.09567838
0.09555088
0.09542521
0.0953018
0.09518111
0.0950637
0.09495018
0.09484132
0.09473793
0.09464078
0.0945505
0.09446736
0.09439128
0.0943217
0.09425777
0.09419839
0.09414241
0.09408863
0.09403588
0.09398302
0.09392889
0.09387234
0.09381219
0.09374714
0.09367564
0.09359575
0.09350458
0.09339687
0.09326082
0.09306595
0.09272479
0.09196561
0.08989004
0.08342162
0.06347782
0.0141356
0.09703487
0.09704078
0.09702523
0.09697259
0.09689761
0.09680489
0.09669963
0.09658586
0.0964664
0.09634328
0.09621798
0.09609163
0.0959651
0.09583911
0.09571424
0.09559096
0.09546971
0.09535092
0.09523502
0.0951225
0.09501388
0.09490979
0.09481085
0.09471767
0.09463067
0.09455007
0.09447573
0.09440718
0.09434371
0.09428439
0.0942282
0.09417406
0.09412091
0.09406767
0.09401322
0.09395646
0.09389619
0.09383109
0.09375962
0.09367979
0.09358867
0.09348084
0.09334397
0.09314514
0.0927843
0.09191763
0.08919916
0.07912857
0.05044213
0.02087636
0.09703561
0.097042
0.09702761
0.09697662
0.09690377
0.09681359
0.09671121
0.09660062
0.09648461
0.09636516
0.09624374
0.09612147
0.09599922
0.09587768
0.09575744
0.09563899
0.09552273
0.09540906
0.09529841
0.09519118
0.09508781
0.09498882
0.09489466
0.09480577
0.09472247
0.09464486
0.0945728
0.09450589
0.09444351
0.09438486
0.09432904
0.09427511
0.09422209
0.09416894
0.09411463
0.09405806
0.09399804
0.09393325
0.09386213
0.09378267
0.09369189
0.09358432
0.09344759
0.09324951
0.09289719
0.09210341
0.08993344
0.08327154
0.06325463
0.01407572
0.09703648
0.09704345
0.09703045
0.09698143
0.09691112
0.09682395
0.09672499
0.09661815
0.09650617
0.09639101
0.09627411
0.09615655
0.0960392
0.09592272
0.09580769
0.09569458
0.0955838
0.09547572
0.0953707
0.0952691
0.09517129
0.09507765
0.09498854
0.09490426
0.094825
0.09475082
0.09468155
0.09461684
0.09455615
0.09449878
0.09444394
0.0943908
0.09433844
0.09428591
0.09423221
0.09417627
0.09411691
0.09405281
0.09398241
0.09390367
0.09381357
0.09370661
0.09357044
0.09337308
0.09302371
0.09225066
0.09021919
0.08425524
0.06604548
0.01394719
0.0970375
0.09704513
0.09703374
0.096987
0.09691964
0.09683595
0.09674092
0.09663837
0.09653101
0.09642073
0.09630893
0.09619667
0.09608479
0.09597393
0.09586463
0.09575735
0.09565249
0.09555039
0.09545135
0.09535567
0.09526367
0.09517563
0.09509181
0.0950124
0.09493752
0.09486715
0.09480113
0.09473913
0.09468069
0.09462518
0.0945719
0.09452011
0.09446895
0.09441756
0.09436496
0.09431011
0.09425185
0.09418887
0.09411958
0.09404192
0.09395284
0.09384677
0.09371129
0.09351386
0.09316007
0.09235755
0.09016917
0.08353479
0.06413319
0.01386719
0.09703864
0.09704703
0.09703747
0.09699333
0.09692929
0.09684954
0.09675893
0.09666122
0.09655901
0.09645417
0.09634803
0.09624162
0.09613573
0.09603099
0.09592791
0.09582691
0.09572835
0.09563255
0.09553979
0.09545031
0.09536435
0.09528212
0.0952038
0.0951295
0.09505927
0.09499307
0.09493072
0.0948719
0.09481621
0.09476309
0.09471191
0.09466199
0.09461258
0.09456283
0.09451182
0.09445853
0.09440183
0.0943404
0.09427264
0.09419645
0.09410869
0.09400374
0.09386929
0.09367421
0.09333169
0.09258505
0.09064413
0.08490118
0.06683431
0.01385396
0.09703991
0.09704914
0.09704162
0.09700038
0.09694005
0.09686467
0.09677896
0.09668658
0.09659005
0.09649116
0.0963912
0.09629113
0.09619172
0.09609356
0.09599711
0.09590278
0.09581089
0.09572171
0.09563548
0.09555242
0.0954727
0.09539646
0.09532383
0.09525486
0.09518954
0.09512781
0.09506947
0.09501424
0.09496174
0.09491148
0.0948629
0.09481536
0.09476817
0.09472055
0.09467159
0.09462033
0.09456565
0.09450624
0.09444046
0.09436616
0.09428011
0.09417652
0.09404306
0.09384953
0.09351518
0.09281021
0.09103853
0.08579027
0.06805809
0.01387664
0.09704129
0.09705142
0.09704617
0.09700812
0.09695187
0.09688128
0.09680092
0.09671434
0.09662397
0.09653151
0.09643819
0.09634494
0.09625244
0.09616125
0.09607182
0.09598449
0.09589956
0.09581726
0.0957378
0.09566134
0.09558802
0.09551794
0.09545116
0.09538769
0.09532751
0.09527049
0.09521647
0.09516517
0.09511625
0.09506926
0.0950237
0.09497898
0.09493446
0.09488939
0.09484295
0.09479418
0.09474199
0.09468508
0.09462178
0.09454989
0.09446603
0.09436419
0.09423155
0.09403715
0.0936995
0.09299057
0.09122588
0.08602998
0.06838309
0.01390289
0.09704274
0.09705386
0.09705107
0.09701649
0.09696467
0.09689927
0.0968247
0.09674436
0.09666058
0.09657499
0.09648874
0.09640268
0.09631747
0.09623361
0.0961515
0.09607146
0.09599374
0.09591854
0.09584603
0.09577633
0.09570955
0.09564574
0.09558493
0.09552712
0.09547223
0.09542015
0.09537069
0.0953236
0.09527857
0.0952352
0.09519301
0.09515149
0.09511002
0.09506793
0.09502443
0.09497859
0.09492936
0.09487543
0.09481515
0.09474626
0.09466529
0.09456602
0.09443519
0.09424089
0.09389936
0.09317719
0.09137801
0.08611571
0.06846798
0.0139401
0.09704424
0.0970564
0.09705627
0.09702544
0.09697839
0.09691855
0.09685015
0.09677645
0.09669966
0.09662132
0.09654249
0.09646398
0.09638637
0.09631012
0.09623559
0.09616305
0.09609272
0.09602477
0.09595934
0.09589651
0.09583636
0.09577892
0.09572418
0.09567212
0.09562265
0.09557564
0.09553093
0.09548827
0.09544737
0.09540787
0.09536936
0.09533135
0.09529328
0.09525452
0.09521434
0.09517184
0.09512601
0.09507557
0.09501888
0.09495368
0.09487646
0.09478097
0.09465406
0.09446437
0.09413017
0.09342324
0.091654
0.0864135
0.06853433
0.01391976
0.09704574
0.09705898
0.09706169
0.09703487
0.0969929
0.09693897
0.0968771
0.09681038
0.09674092
0.09667014
0.09659904
0.09652834
0.09645858
0.09639015
0.09632338
0.09625849
0.09619568
0.09613508
0.09607679
0.09602089
0.09596742
0.09591637
0.09586774
0.09582148
0.09577749
0.09573565
0.0956958
0.09565771
0.09562112
0.09558571
0.0955511
0.09551685
0.09548245
0.09544733
0.09541078
0.095372
0.09532998
0.09528351
0.095231
0.09517021
0.09509769
0.09500733
0.09488646
0.09470526
0.09438608
0.09370951
0.09199582
0.08680202
0.06868762
0.01392045
0.09704716
0.09706149
0.09706724
0.09704465
0.09700805
0.09696034
0.0969053
0.09684587
0.09678401
0.09672104
0.09665789
0.09659519
0.09653343
0.09647296
0.09641405
0.0963569
0.09630165
0.09624842
0.09619729
0.09614831
0.09610148
0.09605681
0.09601427
0.0959738
0.0959353
0.09589866
0.09586371
0.09583027
0.0957981
0.0957669
0.09573634
0.09570603
0.09567551
0.09564425
0.09561162
0.09557685
0.09553902
0.09549698
0.09544919
0.0953935
0.0953266
0.09524257
0.09512929
0.09495825
0.09465472
0.09400386
0.09232562
0.08713651
0.06881687
0.01393579
0.09704842
0.09706383
0.09707275
0.0970546
0.09702361
0.09698238
0.09693444
0.09688252
0.09682845
0.09677347
0.0967184
0.09666382
0.09661014
0.09655766
0.09650663
0.0964572
0.09640948
0.09636358
0.09631953
0.09627737
0.09623711
0.09619873
0.09616219
0.09612743
0.09609436
0.09606287
0.09603282
0.09600403
0.0959763
0.09594936
0.09592293
0.09589666
0.09587014
0.09584291
0.09581438
0.09578388
0.09575054
0.0957133
0.09567073
0.0956208
0.09556035
0.09548374
0.09537934
0.09521959
0.09493132
0.09430088
0.09264239
0.08743145
0.06890241
0.01394919
0.09704944
0.09706581
0.09707802
0.09706445
0.09703926
0.09700471
0.09696404
0.09691979
0.09687364
0.09682672
0.09677977
0.0967333
0.09668767
0.09664314
0.0965999
0.09655808
0.09651777
0.09647904
0.09644193
0.09640644
0.09637258
0.09634032
0.09630963
0.09628043
0.09625266
0.09622621
0.09620095
0.09617674
0.09615339
0.09613069
0.09610839
0.09608617
0.0960637
0.09604057
0.09601626
0.09599018
0.09596155
0.09592941
0.09589246
0.09584882
0.09579556
0.09572735
0.09563307
0.09548594
0.09521381
0.09460313
0.09296081
0.08772187
0.06897369
0.01396334
0.09705071
0.0970675
0.09708286
0.09707385
0.09705454
0.09702678
0.09699346
0.09695692
0.0969187
0.09687981
0.09684091
0.09680244
0.09676472
0.09672796
0.09669232
0.0966579
0.09662477
0.09659297
0.09656254
0.09653347
0.09650576
0.09647938
0.09645429
0.09643044
0.09640775
0.09638615
0.09636551
0.09634572
0.09632663
0.09630805
0.09628978
0.09627155
0.09625309
0.09623404
0.09621396
0.09619235
0.09616854
0.09614167
0.09611061
0.09607367
0.09602817
0.09596917
0.09588612
0.09575308
0.09549895
0.09491027
0.09328682
0.08802123
0.06903995
0.01397904
0.09705456
0.0970703
0.09708738
0.09708233
0.09706877
0.09704776
0.09702175
0.09699284
0.09696242
0.09693139
0.09690032
0.09686961
0.09683953
0.09681024
0.09678187
0.09675451
0.0967282
0.09670299
0.09667888
0.09665588
0.09663397
0.09661313
0.09659332
0.0965745
0.0965566
0.09653957
0.0965233
0.09650769
0.09649264
0.09647798
0.09646356
0.09644917
0.09643457
0.09641948
0.09640354
0.09638633
0.09636731
0.09634574
0.09632066
0.09629061
0.09625323
0.09620401
0.09613307
0.09601551
0.0957816
0.09521858
0.09361956
0.08833173
0.06910034
0.01399694
0.09704143
0.0970742
0.09709272
0.09708936
0.09708086
0.09706636
0.09704743
0.0970259
0.09700298
0.09697947
0.09695587
0.09693251
0.09690962
0.09688734
0.09686578
0.096845
0.09682504
0.09680592
0.09678767
0.09677026
0.0967537
0.09673795
0.096723
0.0967088
0.09669531
0.09668248
0.09667023
0.09665848
0.09664716
0.09663614
0.09662529
0.09661447
0.09660348
0.09659212
0.0965801
0.09656709
0.09655266
0.09653624
0.09651702
0.09649382
0.0964646
0.09642538
0.09636708
0.09626608
0.09605461
0.09552163
0.09395474
0.0886521
0.06915168
0.01401805
0.09677024
0.09702834
0.09709588
0.09709439
0.09708942
0.09708071
0.09706835
0.09705367
0.09703772
0.09702117
0.09700444
0.09698781
0.09697147
0.09695556
0.09694015
0.09692531
0.09691105
0.09689741
0.09688439
0.09687198
0.09686018
0.09684898
0.09683835
0.09682826
0.09681869
0.09680959
0.09680091
0.0967926
0.0967846
0.09677682
0.09676917
0.09676155
0.09675382
0.09674582
0.09673736
0.09672819
0.09671799
0.09670633
0.09669261
0.0966759
0.09665452
0.09662506
0.09657938
0.09649546
0.09630821
0.0958099
0.0942848
0.08897917
0.06918981
0.0140442
0.09560402
0.0967575
0.09707084
0.09709586
0.09709434
0.09708919
0.09708196
0.09707316
0.09706328
0.0970528
0.09704205
0.09703126
0.0970206
0.09701016
0.09700004
0.09699028
0.09698089
0.09697191
0.09696334
0.09695518
0.09694743
0.09694007
0.09693309
0.09692648
0.09692022
0.09691427
0.09690861
0.0969032
0.096898
0.09689296
0.09688802
0.09688311
0.09687815
0.09687302
0.0968676
0.09686172
0.09685518
0.09684768
0.09683879
0.09682782
0.09681349
0.09679296
0.09675911
0.09669181
0.09652942
0.0960694
0.09459633
0.08930495
0.06920697
0.01407885
0.09554715
0.09664755
0.09700801
0.09707084
0.09709583
0.09709258
0.09708712
0.0970824
0.09707727
0.0970716
0.0970656
0.09705944
0.09705326
0.09704716
0.0970412
0.09703543
0.09702988
0.09702455
0.09701947
0.09701463
0.09701003
0.09700567
0.09700155
0.09699764
0.09699395
0.09699045
0.09698713
0.09698398
0.09698096
0.09697805
0.09697521
0.0969724
0.09696958
0.09696669
0.09696364
0.09696035
0.09695668
0.09695246
0.09694742
0.09694109
0.0969325
0.09691937
0.09689559
0.09684298
0.09670376
0.09628183
0.09486426
0.08960238
0.06919201
0.0141307
0.09821215
0.09683407
0.09664758
0.0967575
0.09702829
0.09707409
0.09707016
0.09706726
0.09706543
0.09706323
0.09706064
0.09705779
0.09705482
0.0970518
0.09704881
0.09704588
0.09704303
0.0970403
0.09703768
0.09703518
0.09703281
0.09703056
0.09702844
0.09702643
0.09702455
0.09702277
0.09702109
0.09701951
0.097018
0.09701657
0.09701519
0.09701385
0.09701252
0.09701118
0.09700978
0.09700828
0.09700663
0.09700472
0.09700239
0.09699935
0.09699489
0.09698717
0.09697088
0.09692951
0.09680842
0.09641569
0.09503253
0.08978248
0.06934977
0.0142405
0.09861768
0.09821166
0.09554722
0.09560438
0.09677045
0.09704141
0.09705447
0.09705055
0.09704918
0.09704803
0.09704661
0.09704498
0.09704324
0.09704144
0.09703964
0.09703787
0.09703616
0.0970345
0.09703292
0.09703142
0.09702999
0.09702865
0.09702738
0.09702619
0.09702507
0.09702403
0.09702305
0.09702214
0.09702128
0.09702047
0.09701971
0.09701898
0.09701826
0.09701756
0.09701684
0.09701609
0.09701526
0.09701431
0.09701312
0.09701147
0.09700878
0.09700342
0.09699047
0.09695401
0.09683948
0.09644555
0.09500676
0.08960777
0.07165151
0.01477875
0.09408217
0.09479352
0.09540221
0.09615929
0.09632766
0.09634627
0.09634923
0.09635377
0.09635808
0.09636135
0.09636373
0.09636549
0.09636678
0.09636774
0.09636844
0.09636897
0.09636936
0.09636965
0.09636987
0.09637003
0.09637015
0.09637024
0.09637031
0.09637037
0.09637043
0.0963705
0.09637058
0.09637069
0.09637084
0.09637102
0.09637126
0.09637156
0.09637194
0.09637241
0.09637299
0.0963737
0.09637454
0.09637551
0.09637651
0.09637715
0.09637626
0.0963701
0.09634721
0.09627159
0.09602778
0.09523617
0.09263157
0.08409488
0.05915644
0.01474461
0.09460447
0.09570662
0.09616724
0.09637934
0.09641572
0.09641508
0.09641596
0.0964186
0.09642041
0.09642098
0.09642064
0.0964197
0.09641837
0.0964168
0.09641508
0.09641328
0.09641145
0.09640963
0.09640783
0.09640608
0.09640439
0.09640276
0.09640121
0.09639974
0.09639836
0.09639708
0.09639589
0.09639479
0.09639378
0.09639286
0.09639203
0.09639127
0.09639058
0.09638995
0.09638937
0.09638881
0.09638825
0.09638761
0.0963867
0.09638504
0.09638121
0.09637111
0.09634247
0.09625767
0.09599854
0.09518529
0.09257711
0.08411393
0.05815147
0.01431016
0.0951247
0.09601523
0.09638047
0.0964509
0.09644805
0.09644474
0.09644554
0.09644602
0.09644466
0.09644173
0.09643776
0.09643317
0.09642824
0.09642316
0.09641804
0.09641296
0.09640798
0.09640312
0.09639842
0.0963939
0.09638956
0.09638542
0.09638148
0.09637776
0.09637425
0.09637096
0.09636787
0.09636498
0.09636226
0.0963597
0.09635727
0.09635494
0.09635267
0.0963504
0.09634809
0.09634566
0.09634301
0.09633996
0.09633622
0.09633109
0.09632283
0.09630674
0.0962693
0.09617026
0.09588597
0.0950272
0.09234376
0.08378753
0.05779441
0.01410847
0.095424
0.09615533
0.09643408
0.09648148
0.09648371
0.09648534
0.09648598
0.09648339
0.0964778
0.09647017
0.09646132
0.09645182
0.09644204
0.09643219
0.09642244
0.09641288
0.09640356
0.09639453
0.09638583