/*--------------------------------*- C++ -*----------------------------------*\
| =========                 |                                                 |
| \\      /  F ield         | OpenFOAM: The Open Source CFD Toolbox           |
|  \\    /   O peration     | Version:  2506                                  |
|   \\  /    A nd           | Website:  www.openfoam.com                      |
|    \\/     M anipulation  |                                                 |
\*---------------------------------------------------------------------------*/
FoamFile
{
    version     2.0;
    format      ascii;
    arch        "LSB;label=32;scalar=64";
    class       volScalarField;
    location    "60/airRegion";
    object      epsilon;
}
// * * * * * * * * * * * * * * * * * * * * * * * * * * * * * * * * * * * * * //

dimensions      [0 2 -3 0 0 0 0];

internalField   nonuniform List<scalar> 
260661
(
0.0264551
0.02372244
0.02234276
0.01827111
0.01784672
0.0178235
0.01786004
0.01790029
0.01793573
0.01796627
0.01799288
0.01801644
0.01803761
0.01805686
0.01807452
0.01809083
0.01810597
0.01812006
0.01813322
0.01814551
0.01815701
0.01816777
0.01817785
0.01818729
0.01819616
0.0182045
0.01821239
0.0182199
0.01822711
0.01823411
0.01824103
0.01824799
0.01825514
0.01826265
0.01827075
0.01827968
0.01828976
0.0183014
0.01831511
0.01833158
0.01835175
0.01837704
0.01840971
0.01845396
0.01851922
0.01862949
0.01887898
0.01989434
0.02630616
0.0713192
0.02351935
0.01890472
0.01826743
0.01783739
0.01779122
0.0178421
0.0179062
0.01796406
0.0180138
0.0180568
0.01809458
0.01812831
0.01815881
0.01818669
0.01821236
0.01823614
0.01825826
0.01827888
0.01829815
0.01831617
0.01833304
0.01834884
0.01836363
0.01837748
0.01839048
0.01840271
0.01841427
0.01842525
0.01843579
0.01844602
0.01845611
0.01846626
0.01847667
0.01848761
0.01849937
0.01851234
0.01852695
0.01854377
0.01856353
0.01858719
0.01861605
0.01865203
0.01869812
0.01875964
0.01884758
0.01898866
0.01925311
0.01985343
0.02369883
0.0703551
0.01889026
0.01808307
0.01791238
0.01791295
0.01800356
0.01810708
0.01820003
0.01827964
0.01834807
0.01840781
0.01846083
0.01850856
0.01855203
0.01859195
0.01862886
0.01866313
0.01869508
0.01872493
0.01875285
0.01877898
0.01880346
0.01882639
0.01884786
0.01886796
0.01888682
0.01890454
0.01892126
0.01893713
0.01895234
0.01896709
0.01898161
0.01899619
0.01901114
0.01902681
0.01904365
0.01906217
0.019083
0.01910692
0.01913494
0.01916839
0.01920905
0.01925952
0.01932386
0.01940904
0.0195288
0.01971359
0.02003373
0.02063698
0.02419709
0.06914068
0.01836074
0.01794711
0.01793605
0.01804448
0.01819209
0.01833
0.01844878
0.01855058
0.01863903
0.01871713
0.01878712
0.0188506
0.01890875
0.0189624
0.01901216
0.0190585
0.01910178
0.01914228
0.01918023
0.01921579
0.01924911
0.01928033
0.01930958
0.01933695
0.01936261
0.0193867
0.0194094
0.01943091
0.0194515
0.01947143
0.01949103
0.01951067
0.01953077
0.01955183
0.01957442
0.01959921
0.01962705
0.01965895
0.01969623
0.01974059
0.01979435
0.0198608
0.01994504
0.02005571
0.02020931
0.02044068
0.02082607
0.02151213
0.02515306
0.06846322
0.01800145
0.01785435
0.01801261
0.01819085
0.01837456
0.01853877
0.01868049
0.01880344
0.01891162
0.0190082
0.01909551
0.01917526
0.01924869
0.01931671
0.01938002
0.01943915
0.01949449
0.01954637
0.01959505
0.01964072
0.01968357
0.01972371
0.01976133
0.01979652
0.01982949
0.0198604
0.01988949
0.01991701
0.01994328
0.01996867
0.01999359
0.02001854
0.02004402
0.02007067
0.0200992
0.02013048
0.02016552
0.02020559
0.02025229
0.0203077
0.02037458
0.02045689
0.02056058
0.0206956
0.02088054
0.0211534
0.02159424
0.02234059
0.02600334
0.06797721
0.0178633
0.01785366
0.01810403
0.0183258
0.01853656
0.01872339
0.01888615
0.01902909
0.0191563
0.01927094
0.01937538
0.01947136
0.01956017
0.01964276
0.01971988
0.0197921
0.01985985
0.01992351
0.01998331
0.02003948
0.02009224
0.0201417
0.02018806
0.02023141
0.02027197
0.02030993
0.02034558
0.02037925
0.02041133
0.02044227
0.02047255
0.02050279
0.02053362
0.02056583
0.02060025
0.02063791
0.02068001
0.02072806
0.0207839
0.02084993
0.02092931
0.0210265
0.02114813
0.02130508
0.02151731
0.02182474
0.02230931
0.02309668
0.02675101
0.06759936
0.01786102
0.01790155
0.01819329
0.01844294
0.01867626
0.0188838
0.01906632
0.01922827
0.01937372
0.01950586
0.01962702
0.01973897
0.019843
0.01994012
0.02003108
0.0201165
0.02019683
0.02027243
0.0203436
0.02041057
0.02047353
0.02053258
0.02058789
0.02063961
0.02068792
0.02073307
0.02077535
0.02081517
0.02085302
0.02088938
0.02092491
0.02096032
0.02099634
0.02103391
0.02107397
0.02111774
0.02116658
0.02122217
0.02128659
0.02136251
0.02145342
0.02156414
0.0217018
0.02187791
0.02211324
0.02244885
0.02296748
0.02378297
0.02741641
0.06728949
0.01789486
0.01795712
0.01827214
0.01854333
0.01879691
0.01902385
0.01922511
0.01940517
0.01956813
0.01971712
0.0198545
0.01998203
0.02010101
0.02021248
0.0203172
0.0204158
0.02050874
0.02059643
0.02067914
0.02075708
0.0208304
0.02089923
0.02096371
0.02102392
0.02108008
0.02113244
0.02118133
0.02122722
0.02127067
0.02131229
0.02135283
0.02139315
0.02143408
0.02147666
0.02152202
0.02157148
0.02162658
0.02168914
0.02176145
0.02184637
0.02194765
0.02207041
0.02222214
0.02241474
0.02266953
0.0230282
0.02357382
0.02440903
0.02801559
0.06702541
0.01792997
0.0180066
0.01833962
0.01862974
0.01890207
0.0191473
0.01936632
0.01956363
0.01974331
0.0199085
0.02006154
0.02020419
0.02033778
0.02046332
0.02058163
0.02069332
0.02079887
0.02089869
0.02099301
0.02108204
0.02116589
0.02124463
0.02131837
0.02138718
0.02145122
0.02151076
0.02156617
0.02161798
0.02166678
0.0217134
0.02175862
0.02180347
0.0218489
0.0218961
0.02194631
0.02200096
0.02206173
0.02213061
0.02221
0.02230295
0.02241341
0.02254672
0.02271065
0.02291743
0.02318878
0.02356683
0.02413475
0.02498443
0.02856094
0.06679566
0.01796016
0.01804873
0.01839752
0.01870488
0.01899465
0.01925705
0.01949286
0.01970654
0.01990215
0.02008283
0.02025092
0.02040818
0.02055595
0.02069526
0.0208269
0.02095151
0.02106961
0.02118153
0.0212875
0.02138772
0.02148223
0.02157106
0.0216542
0.02173168
0.0218036
0.0218702
0.0219319
0.02198931
0.02204313
0.02209438
0.02214387
0.0221928
0.02224226
0.02229358
0.02234811
0.02240738
0.02247319
0.02254764
0.02263327
0.02273325
0.02285168
0.02299412
0.02316857
0.02338763
0.02367352
0.02406895
0.02465709
0.02551874
0.0290622
0.06659457
0.01798575
0.01808481
0.0184478
0.01877094
0.01907685
0.01935529
0.01960688
0.019836
0.02004672
0.02024214
0.02042463
0.02059593
0.0207574
0.02091005
0.02105473
0.02119208
0.02132257
0.02144652
0.02156416
0.02167567
0.02178092
0.02187989
0.02197253
0.0220587
0.02213845
0.02221197
0.02227974
0.02234245
0.02240088
0.0224562
0.02250943
0.02256196
0.02261492
0.02266976
0.02272801
0.02279131
0.0228615
0.02294076
0.02303178
0.02313777
0.02326299
0.02341319
0.02359666
0.02382653
0.02412597
0.02453912
0.02515004
0.02602787
0.02953825
0.06644026
0.01800773
0.01811614
0.01849195
0.01882949
0.01915028
0.01944361
0.01970992
0.01995354
0.0201785
0.02038789
0.02058407
0.0207688
0.02094343
0.02110899
0.02126634
0.02141611
0.02155877
0.02169467
0.02182399
0.02194675
0.02206285
0.02217214
0.02227432
0.02236916
0.02245664
0.02253691
0.02261041
0.02267792
0.02274047
0.02279934
0.02285575
0.02291121
0.02296707
0.02302488
0.02308624
0.02315289
0.02322676
0.02331007
0.02340559
0.0235166
0.02364745
0.02380407
0.02399513
0.02423463
0.02454764
0.02498214
0.02562768
0.02655075
0.03006374
0.06638591
0.01802687
0.01814363
0.01853103
0.01888166
0.01921607
0.01952314
0.01980313
0.02006027
0.02029856
0.0205211
0.02073022
0.02092769
0.02111486
0.02129281
0.02146241
0.02162426
0.02177884
0.0219265
0.02206736
0.02220142
0.02232842
0.02244803
0.02255981
0.02266336
0.02275845
0.02284514
0.02292396
0.02299581
0.02306191
0.02312365
0.02318259
0.02324035
0.0232985
0.02335865
0.02342247
0.02349183
0.02356873
0.02365536
0.0237545
0.02386957
0.02400487
0.0241665
0.02436353
0.02461103
0.02493705
0.02539685
0.02609694
0.02713475
0.03078974
0.0653734
0.01804367
0.01816792
0.01856574
0.01892824
0.01927507
0.01959474
0.01988733
0.020157
0.0204077
0.02064251
0.02086376
0.02107324
0.02127231
0.02146205
0.02164335
0.02181683
0.02198299
0.02214216
0.02229441
0.02243966
0.02257752
0.0227075
0.0228289
0.02294109
0.02304361
0.02313644
0.02322011
0.0232957
0.02336467
0.02342867
0.02348949
0.0235489
0.02360869
0.02367054
0.02373626
0.02380773
0.02388695
0.0239762
0.02407818
0.02419631
0.02433486
0.02449988
0.02470047
0.02495211
0.02528416
0.02575636
0.02648722
0.02760954
0.03136432
0.06318258
0.01805849
0.01818942
0.0185966
0.01896979
0.01932788
0.01965903
0.01996315
0.02024432
0.02050646
0.02075263
0.02098518
0.02120586
0.02141607
0.02161693
0.02180931
0.02199389
0.02217118
0.02234147
0.02250486
0.0226611
0.02280973
0.02295001
0.02308095
0.02320167
0.02331141
0.02340999
0.02349804
0.02357677
0.02364791
0.02371348
0.0237755
0.02383594
0.02389678
0.02395978
0.02402688
0.02409991
0.02418085
0.02427209
0.0243762
0.02449649
0.02463716
0.02480397
0.02500555
0.02525635
0.02558344
0.0260406
0.0267321
0.02774048
0.03130642
0.0652739
0.01807155
0.01820843
0.01862396
0.01900673
0.01937495
0.01971647
0.02003104
0.02032269
0.02059528
0.02085186
0.02109478
0.0213258
0.02154634
0.02175754
0.02196029
0.02215531
0.02234314
0.02252406
0.02269813
0.02286503
0.02302418
0.02317453
0.02331484
0.02344385
0.0235605
0.02366444
0.02375629
0.02383754
0.02391027
0.02397681
0.02403946
0.02410038
0.02416177
0.02422548
0.0242935
0.02436758
0.02444981
0.02454249
0.02464811
0.02476985
0.02491176
0.02507912
0.02527987
0.02552677
0.0258429
0.02627329
0.0269018
0.02776847
0.0311092
0.06616688
0.01808302
0.01822516
0.01864809
0.01903937
0.01941662
0.01976741
0.02009136
0.02039243
0.02067446
0.02094047
0.02119279
0.02143322
0.0216632
0.02188387
0.02209614
0.0223008
0.02249844
0.0226893
0.02287341
0.02305043
0.02321958
0.02337962
0.02352894
0.0236659
0.02378906
0.02389787
0.02399301
0.02407625
0.02415005
0.02421709
0.02427992
0.02434095
0.02440252
0.02446659
0.0245351
0.02460994
0.02469314
0.02478682
0.02489352
0.02501621
0.02515873
0.02532602
0.02552534
0.02576811
0.02607454
0.02648422
0.02707024
0.02786001
0.0310738
0.06626224
0.01809303
0.01823977
0.01866919
0.01906794
0.01945315
0.01981213
0.02014439
0.02045383
0.02074423
0.02101864
0.02127936
0.0215282
0.02176661
0.02199578
0.02221667
0.02243003
0.02263656
0.02283645
0.02302973
0.02321607
0.02339446
0.02356346
0.02372116
0.0238655
0.02399464
0.02410781
0.02420581
0.02429068
0.02436515
0.02443238
0.02449516
0.02455614
0.02461771
0.02468198
0.02475083
0.02482626
0.02491013
0.02500456
0.02511202
0.02523534
0.02537811
0.02554506
0.02574297
0.02598257
0.02628315
0.02668334
0.02725564
0.02807789
0.03134974
0.06749635
0.01810165
0.01825236
0.01868739
0.01909263
0.01948474
0.01985084
0.02019034
0.02050706
0.0208048
0.02108654
0.02135459
0.02161079
0.02185659
0.02209318
0.02232158
0.0225426
0.02275685
0.02296465
0.02316604
0.02336056
0.0235471
0.02372405
0.02388917
0.02404005
0.02417452
0.02429157
0.02439205
0.0244783
0.02455341
0.0246208
0.02468354
0.02474452
0.02480613
0.02487057
0.02493978
0.02501568
0.02510012
0.02519519
0.02530324
0.02542699
0.02556985
0.02573637
0.02593307
0.02617066
0.02646962
0.02687229
0.02747454
0.02874875
0.03451744
0.06919363
0.01810894
0.01826303
0.01870282
0.01911356
0.01951154
0.01988371
0.02022937
0.02055232
0.02085629
0.02114427
0.02141858
0.02168102
0.02193308
0.02217595
0.02241067
0.02263808
0.02285881
0.02307325
0.02328138
0.02348261
0.0236759
0.02385943
0.02403076
0.02418712
0.02432608
0.02444644
0.02454916
0.02463679
0.02471272
0.0247805
0.02484347
0.02490465
0.0249666
0.0250314
0.02510112
0.02517755
0.02526259
0.02535826
0.02546686
0.02559094
0.02573383
0.02589992
0.02609549
0.02633132
0.02662956
0.0270414
0.02774472
0.03100541
0.05786469
0.2253747
0.01811497
0.01827183
0.01871556
0.01913085
0.01953369
0.01991087
0.02026163
0.02058971
0.02089883
0.02119196
0.02147138
0.02173893
0.02199606
0.022244
0.02248378
0.02271624
0.02294203
0.0231616
0.02337487
0.02358123
0.02377963
0.02396808
0.02414407
0.02430461
0.02444711
0.0245703
0.02467514
0.02476429
0.02484134
0.02490998
0.02497371
0.02503557
0.02509819
0.0251637
0.02523416
0.02531133
0.0253971
0.02549342
0.02560261
0.02572705
0.02587007
0.026036
0.02623117
0.02646643
0.02676342
0.02716779
0.02777931
0.02908798
0.034839
0.06931945
0.01811976
0.01827883
0.01872569
0.01914459
0.01955128
0.01993244
0.02028724
0.02061937
0.02093254
0.02122968
0.02151308
0.02178455
0.02204554
0.02229727
0.02254077
0.0227769
0.02300628
0.02322935
0.02344603
0.02365574
0.0238574
0.024049
0.02422799
0.02439132
0.02453636
0.02466182
0.02476867
0.0248596
0.02493819
0.02500827
0.02507334
0.02513645
0.02520027
0.02526692
0.02533846
0.02541663
0.02550331
0.02560044
0.02571028
0.02583515
0.02597836
0.02614421
0.02633911
0.02657427
0.02687221
0.02728139
0.02789814
0.02890767
0.03248262
0.06591301
0.01812334
0.01828406
0.01873325
0.01915483
0.01956439
0.0199485
0.02030627
0.02064138
0.02095749
0.02125753
0.02154375
0.02181795
0.02208157
0.02233582
0.02258169
0.02282
0.02305141
0.02327635
0.02349473
0.02370592
0.02390894
0.02410179
0.02428204
0.0244467
0.02459322
0.02472038
0.02482911
0.02492205
0.02500275
0.02507492
0.02514194
0.02520693
0.0252725
0.02534075
0.02541374
0.02549322
0.02558105
0.02567915
0.02578971
0.02591512
0.02605853
0.02622423
0.02641851
0.02665271
0.02694975
0.02736126
0.02799058
0.02912663
0.03285239
0.05708941
0.01812573
0.01828754
0.01873827
0.01916163
0.01957307
0.0199591
0.02031879
0.02065579
0.02097374
0.02127555
0.02156344
0.02183919
0.02210421
0.02235967
0.02260654
0.02284565
0.02307759
0.02330274
0.02352108
0.02373201
0.02393454
0.02412685
0.02430664
0.02447118
0.02461815
0.02474644
0.02485693
0.02495211
0.02503532
0.02511007
0.02517968
0.0252471
0.02531488
0.02538518
0.02545995
0.025541
0.02563019
0.02572943
0.02584085
0.02596687
0.02611056
0.02627607
0.02646951
0.02670168
0.02699438
0.02739522
0.02799948
0.02898911
0.03253875
0.06593584
0.01812693
0.01828928
0.01874077
0.019165
0.01957734
0.01996426
0.02032483
0.02066264
0.02098133
0.02128378
0.02157219
0.02184831
0.02211351
0.02236891
0.02261547
0.02285396
0.02308498
0.02330879
0.02352543
0.02373444
0.02393475
0.02412484
0.02430262
0.02446571
0.02461213
0.02474094
0.02485295
0.02495044
0.02503646
0.02511419
0.02518682
0.0252571
0.02532753
0.0254002
0.02547705
0.02555992
0.02565067
0.02575118
0.0258636
0.02599032
0.02613433
0.02629958
0.02649178
0.02672083
0.02700682
0.02739369
0.0279789
0.02924659
0.03494049
0.06943859
0.01812695
0.01828928
0.01874074
0.01916491
0.01957716
0.01996396
0.02032433
0.02066189
0.02098022
0.02128219
0.02156999
0.0218453
0.02210948
0.02236363
0.02260863
0.02284522
0.02307397
0.0232951
0.02350865
0.02371424
0.02391093
0.02409741
0.02427191
0.02443245
0.02457741
0.02470609
0.02481927
0.02491892
0.02500771
0.02508857
0.02516433
0.02523769
0.02531091
0.0253861
0.02546519
0.02554998
0.02564235
0.02574422
0.02585774
0.02598525
0.02612973
0.02629485
0.02648596
0.02671218
0.02699288
0.02737573
0.02803249
0.03121547
0.05788477
0.2272145
0.01812577
0.01828753
0.01873817
0.01916138
0.01957257
0.01995821
0.02031735
0.02065357
0.02097047
0.02127087
0.02155696
0.02183037
0.02209243
0.02234419
0.02258651
0.02282007
0.02304537
0.02326269
0.02347203
0.02367308
0.02386507
0.02404691
0.02421721
0.02437433
0.0245171
0.02464504
0.02475885
0.02486023
0.0249515
0.02503525
0.025114
0.02519032
0.02526627
0.02534391
0.02542518
0.02551184
0.02560578
0.02570905
0.0258237
0.02595214
0.02609732
0.02626285
0.0264539
0.02667883
0.02695423
0.02731733
0.02785488
0.0290249
0.03458245
0.06953021
0.01812341
0.01828406
0.01873311
0.01915445
0.0195636
0.01994709
0.02030397
0.02063783
0.02095225
0.02125004
0.02153336
0.02180383
0.02206272
0.02231106
0.02254968
0.02277917
0.02300005
0.02321259
0.02341682
0.02361247
0.02379896
0.02397544
0.02414083
0.02429391
0.02443385
0.02456041
0.02467424
0.02477678
0.02487
0.02495618
0.02503759
0.02511651
0.02519494
0.02527483
0.02535808
0.02544649
0.02554193
0.0256465
0.02576227
0.02589175
0.02603785
0.02620426
0.02639607
0.02662123
0.02689452
0.02724939
0.02774935
0.02851495
0.03169014
0.06907114
0.01811987
0.01827886
0.01872553
0.01914411
0.01955027
0.01993061
0.02028422
0.0206147
0.02092561
0.02121978
0.02149932
0.02176585
0.0220206
0.02226455
0.02249854
0.02272311
0.02293874
0.02314573
0.0233441
0.02353367
0.02371413
0.02388475
0.02404472
0.02419328
0.0243299
0.02445448
0.02456762
0.02467059
0.02476508
0.02485306
0.02493654
0.02501754
0.02509802
0.02517981
0.02526474
0.02535463
0.02545141
0.0255571
0.02567394
0.02580451
0.02595178
0.02611964
0.02631343
0.02654172
0.02682135
0.02718935
0.0277313
0.02890405
0.03444071
0.06953669
0.01811513
0.0182719
0.01871543
0.01913033
0.01953254
0.01990875
0.02025809
0.02058417
0.02089059
0.02118013
0.02145493
0.02171656
0.02196624
0.02220494
0.02243343
0.02265228
0.02286193
0.02306269
0.02325464
0.02343772
0.02361168
0.02377605
0.02393035
0.02407404
0.02420685
0.02432884
0.02444064
0.02454331
0.02463827
0.02472729
0.02481214
0.02489463
0.02497656
0.02505977
0.02514597
0.02523696
0.02533474
0.02544133
0.0255591
0.0256907
0.02583927
0.02600899
0.0262056
0.02643882
0.0267289
0.02712426
0.02779754
0.03098844
0.05751351
0.2249965
0.01810917
0.01826316
0.01870274
0.01911307
0.01951035
0.01988143
0.0202255
0.0205462
0.02084713
0.02113109
0.02140019
0.02165601
0.02189976
0.02213238
0.02235461
0.02256703
0.02277005
0.02296404
0.02314913
0.0233253
0.02349249
0.02365037
0.02379869
0.02393721
0.0240658
0.02418465
0.02429438
0.02439596
0.02449064
0.02457985
0.02466531
0.02474863
0.02483138
0.0249154
0.02500234
0.02509403
0.02519241
0.02529959
0.02541804
0.02555048
0.02570039
0.02587232
0.02607274
0.02631253
0.0266134
0.02702108
0.02763669
0.02894796
0.03470549
0.06937639
0.01810195
0.01825258
0.01868741
0.01909222
0.01948361
0.01984856
0.02018635
0.02050068
0.02079515
0.02107257
0.02133507
0.02158422
0.0218212
0.02204694
0.02226218
0.02246751
0.02266338
0.02285011
0.02302791
0.0231969
0.02335702
0.02350821
0.02365035
0.0237834
0.02390739
0.02402259
0.0241296
0.02422936
0.02432291
0.02441153
0.02449682
0.02458012
0.02466306
0.02474726
0.0248344
0.02492625
0.02502475
0.02513211
0.02525088
0.02538389
0.02553488
0.02570883
0.02591297
0.02615959
0.02647305
0.02690412
0.02755378
0.02861423
0.03227816
0.06572324
0.01809342
0.0182401
0.01866933
0.01906769
0.01945218
0.01980999
0.0201405
0.02044746
0.02073451
0.02100448
0.02125947
0.02150108
0.02173048
0.02194862
0.02215624
0.0223539
0.02254206
0.0227211
0.02289125
0.02305273
0.02320558
0.02334986
0.0234856
0.02361289
0.02373188
0.02384296
0.0239467
0.02404393
0.02413561
0.02422291
0.02430723
0.02438981
0.0244722
0.02455595
0.02464265
0.02473406
0.02483217
0.02493923
0.0250578
0.02519092
0.02534252
0.02551791
0.02572492
0.02597696
0.02630059
0.02675252
0.02744612
0.02868305
0.03261543
0.05688056
0.01808352
0.01822562
0.01864841
0.01903933
0.01941589
0.01976554
0.02008777
0.02038638
0.02066505
0.02092663
0.02117325
0.0214065
0.02162759
0.02183741
0.02203673
0.02222615
0.02240614
0.02257706
0.02273926
0.02289294
0.0230383
0.02317547
0.02330458
0.02342582
0.02353949
0.023646
0.02374591
0.02383994
0.02392904
0.0240143
0.02409689
0.02417809
0.02425924
0.02434185
0.02442745
0.02451784
0.024615
0.02472117
0.02483899
0.02497164
0.02512323
0.02529937
0.02550829
0.02576387
0.02609277
0.02654845
0.02723578
0.0282957
0.03197767
0.06454339
0.01807215
0.01820904
0.01862447
0.01900694
0.01937454
0.01971498
0.0200279
0.02031717
0.02058651
0.02083881
0.0210762
0.0213003
0.0215123
0.02171316
0.02190359
0.02208421
0.02225554
0.02241797
0.02257187
0.02271749
0.02285513
0.02298496
0.0231072
0.02322216
0.02333017
0.02343167
0.02352725
0.02361758
0.02370347
0.02378599
0.0238662
0.02394531
0.02402452
0.02410532
0.02418925
0.02427801
0.02437356
0.02447819
0.02459461
0.0247261
0.02487691
0.02505287
0.02526248
0.02551973
0.0258503
0.02630359
0.02696764
0.02789362
0.03127457
0.06662153
0.01805919
0.01819017
0.01859731
0.01897027
0.01932783
0.01965801
0.01996059
0.02023953
0.02049861
0.02074073
0.02096806
0.02118222
0.02138442
0.02157563
0.02175659
0.02192792
0.02209014
0.0222437
0.022389
0.0225263
0.02265593
0.02277819
0.02289336
0.02300179
0.02310383
0.02319993
0.02329068
0.02337676
0.02345895
0.02353816
0.02361534
0.02369168
0.02376835
0.02384675
0.02392836
0.02401482
0.02410813
0.02421056
0.02432487
0.0244544
0.02460356
0.02477837
0.02498778
0.02524646
0.02558147
0.02604506
0.02673454
0.02771066
0.03120973
0.06572987
0.01804448
0.01816882
0.01856666
0.01892901
0.01927541
0.01959423
0.01988543
0.02015306
0.02040094
0.02063201
0.02084846
0.02105192
0.02124365
0.02142458
0.02159551
0.02175705
0.02190973
0.02205405
0.0221904
0.02231912
0.02244056
0.02255508
0.02266295
0.02276455
0.0228603
0.02295069
0.02303625
0.02311761
0.02319552
0.02327083
0.02334446
0.02341747
0.02349103
0.02356642
0.02364505
0.02372861
0.02381901
0.02391853
0.02402993
0.02415662
0.02430304
0.02447539
0.02468287
0.02494071
0.0252772
0.02574797
0.02646036
0.02750718
0.03116301
0.065032
0.01802778
0.01814466
0.01853213
0.0188827
0.01921678
0.01952313
0.01980191
0.02005725
0.020293
0.02051216
0.02071694
0.02090899
0.02108956
0.02125963
0.02141999
0.02157127
0.02171404
0.02184875
0.02197583
0.0220957
0.02220871
0.02231523
0.02241556
0.02251013
0.02259935
0.02268369
0.02276368
0.02283993
0.02291317
0.02298411
0.02305369
0.02312288
0.02319276
0.02326454
0.02333963
0.02341965
0.02350647
0.02360234
0.02370999
0.02383284
0.02397533
0.02414358
0.02434668
0.02459947
0.02492898
0.02538754
0.02607443
0.02706726
0.03065613
0.06577975
0.01800872
0.01811726
0.01849319
0.01883074
0.0191513
0.01944406
0.01970936
0.01995142
0.02017415
0.02038057
0.02057291
0.02075284
0.02092162
0.02108026
0.02122954
0.02137012
0.02150256
0.02162735
0.02174494
0.02185571
0.02196004
0.02205832
0.02215091
0.02223823
0.02232068
0.02239869
0.02247281
0.02254362
0.0226118
0.02267801
0.02274309
0.02280795
0.02287363
0.02294131
0.0230123
0.02308817
0.02317074
0.0232622
0.02336525
0.02348324
0.02362054
0.02378309
0.02397961
0.02422401
0.02454099
0.02497764
0.02562227
0.0265397
0.03005344
0.06627454
0.01798679
0.01808597
0.01844908
0.01877229
0.01907808
0.0193561
0.01960688
0.0198347
0.02004353
0.02023639
0.02041555
0.0205827
0.0207391
0.02088576
0.02102349
0.02115296
0.02127473
0.02138929
0.02149709
0.02159854
0.02169402
0.02178393
0.02186862
0.02194847
0.02202391
0.0220954
0.02216342
0.02222849
0.02229122
0.02235231
0.0224125
0.02247264
0.02253371
0.02259679
0.02266316
0.0227343
0.02281197
0.02289829
0.02299587
0.023108
0.0232389
0.02339435
0.02358267
0.02381699
0.02412042
0.02453703
0.02515108
0.02603315
0.02955195
0.06641157
0.01796121
0.01804982
0.0183987
0.01870615
0.01899589
0.01925804
0.01949326
0.01970592
0.01989999
0.02007853
0.0202438
0.02039753
0.02054098
0.02067518
0.02080093
0.02091891
0.02102969
0.02113375
0.02123154
0.02132347
0.02140992
0.02149127
0.02156788
0.02164014
0.02170843
0.02177318
0.02183486
0.02189395
0.02195103
0.02200671
0.02206169
0.02211676
0.02217281
0.02223087
0.02229213
0.02235799
0.02243014
0.0225106
0.02260188
0.02270714
0.02283049
0.02297749
0.02315616
0.02337912
0.02366861
0.02406741
0.02465895
0.02552466
0.02907279
0.06658478
0.01793091
0.01800747
0.01834046
0.01863064
0.01890304
0.0191482
0.01936689
0.01956349
0.01974199
0.01990545
0.02005618
0.02019589
0.02032588
0.02044716
0.02056055
0.02066671
0.02076622
0.02085955
0.02094714
0.02102939
0.02110668
0.02117936
0.02124778
0.02131231
0.02137332
0.02143121
0.02148639
0.02153932
0.02159053
0.02164056
0.02169007
0.02173976
0.02179046
0.02184312
0.02189884
0.02195893
0.02202497
0.02209888
0.02218304
0.02228047
0.02239511
0.02253231
0.02269983
0.02290994
0.02318435
0.02356526
0.02413592
0.02498841
0.02856718
0.06679127
0.01789524
0.01795736
0.01827224
0.01854344
0.0187972
0.01902431
0.01922553
0.01940522
0.01956738
0.01971508
0.01985064
0.01997578
0.02009183
0.0201998
0.02030049
0.02039457
0.02048258
0.020565
0.02064226
0.02071472
0.02078274
0.02084668
0.02090684
0.02096358
0.02101723
0.02106815
0.02111672
0.02116337
0.02120855
0.02125277
0.0212966
0.02134068
0.02138575
0.02143269
0.02148249
0.02153637
0.02159577
0.02166248
0.02173874
0.02182739
0.02193216
0.02205817
0.0222129
0.02240826
0.02266558
0.02302654
0.02357424
0.02441133
0.02801916
0.06702341
0.01786033
0.01790014
0.0181918
0.01844148
0.01867521
0.01888329
0.0190662
0.01922819
0.01937327
0.01950454
0.01962435
0.01973445
0.01983615
0.01993047
0.02001819
0.02009997
0.02017634
0.02024773
0.02031456
0.02037718
0.02043591
0.02049107
0.02054296
0.02059188
0.02063814
0.02068207
0.02072399
0.02076428
0.02080335
0.02084163
0.02087964
0.02091793
0.02095718
0.02099814
0.02104172
0.02108901
0.02114131
0.02120025
0.02126789
0.02134684
0.0214406
0.02155398
0.02169409
0.02187244
0.0221098
0.02244721
0.0229674
0.02378417
0.02741843
0.06728849
0.01787476
0.01785224
0.01809936
0.01832139
0.01853317
0.01872125
0.01888502
0.01902854
0.01915584
0.01927007
0.01937361
0.01946823
0.01955525
0.01963566
0.01971025
0.01977961
0.01984425
0.01990459
0.01996099
0.02001378
0.02006325
0.02010968
0.02015334
0.02019449
0.0202334
0.02027035
0.02030563
0.02033957
0.0203725
0.0204048
0.02043692
0.02046934
0.02050263
0.02053744
0.02057458
0.02061498
0.02065981
0.0207105
0.02076888
0.02083733
0.02091899
0.02101829
0.02114188
0.0213006
0.02151441
0.02182323
0.02230897
0.02309724
0.02675214
0.06759886
0.01812212
0.01787825
0.01800402
0.01818118
0.01836752
0.01853422
0.01867786
0.0188021
0.01891091
0.01900753
0.01909436
0.01917319
0.01924532
0.01931171
0.01937309
0.01943004
0.01948301
0.01953237
0.01957845
0.01962153
0.01966187
0.01969971
0.01973526
0.01976877
0.01980045
0.01983054
0.01985927
0.01988693
0.01991378
0.01994015
0.0199664
0.01999293
0.02002022
0.02004883
0.0200794
0.02011276
0.02014987
0.02019197
0.02024063
0.0202979
0.02036655
0.02045049
0.02055568
0.02069206
0.02087822
0.02115212
0.02159382
0.02234081
0.02600395
0.06797698
0.01882351
0.01806133
0.01792925
0.01803119
0.01818178
0.01832294
0.01844441
0.01854826
0.01863791
0.01871649
0.01878638
0.01884933
0.01890659
0.01895907
0.01900743
0.01905218
0.01909372
0.01913237
0.01916841
0.01920207
0.01923356
0.01926307
0.0192908
0.01931692
0.01934161
0.01936506
0.01938746
0.01940903
0.01942999
0.01945058
0.0194711
0.01949187
0.01951326
0.01953572
0.01955978
0.01958609
0.01961544
0.01964884
0.01968756
0.0197333
0.01978836
0.01985603
0.01994139
0.02005305
0.02020755
0.02043968
0.02082567
0.02151218
0.02515338
0.06846314
0.01924777
0.01814023
0.01789556
0.01792957
0.01800485
0.01810098
0.01819452
0.01827645
0.01834657
0.01840715
0.01846038
0.01850788
0.0185508
0.01858994
0.01862588
0.01865906
0.0186898
0.01871835
0.01874495
0.01876976
0.01879296
0.0188147
0.0188351
0.01885432
0.01887249
0.01888974
0.01890623
0.0189221
0.01893753
0.0189527
0.01896783
0.01898316
0.01899898
0.01901561
0.01903345
0.01905301
0.01907489
0.01909984
0.01912887
0.01916328
0.01920486
0.01925619
0.0193213
0.01940718
0.01952756
0.01971288
0.02003342
0.02063696
0.02419726
0.06914066
0.02328886
0.01871254
0.01814038
0.01806177
0.0178791
0.0178537
0.01790242
0.01796072
0.01801219
0.01805622
0.01809439
0.01812808
0.01815828
0.01818567
0.01821073
0.01823379
0.01825512
0.01827491
0.01829331
0.01831048
0.01832651
0.01834152
0.01835561
0.01836888
0.01838142
0.01839333
0.0184047
0.01841566
0.01842631
0.0184368
0.01844726
0.01845786
0.01846882
0.01848036
0.01849276
0.01850639
0.01852168
0.01853917
0.01855958
0.01858387
0.01861333
0.01864986
0.01869646
0.01875844
0.01884678
0.0189882
0.01925289
0.0198534
0.02369891
0.07035509
0.02612273
0.02328894
0.01924798
0.01882393
0.01812286
0.01787597
0.01786214
0.01789782
0.01793447
0.01796594
0.01799294
0.01801654
0.01803754
0.01805649
0.01807375
0.01808961
0.01810424
0.0181178
0.01813039
0.01814213
0.01815309
0.01816334
0.01817297
0.01818202
0.01819058
0.0181987
0.01820646
0.01821393
0.01822119
0.01822834
0.01823547
0.01824271
0.01825018
0.01825807
0.01826656
0.01827591
0.01828642
0.01829848
0.01831261
0.01832948
0.01835003
0.01837568
0.01840867
0.01845321
0.01851873
0.01862922
0.01887886
0.01989433
0.02630621
0.07131922
0.0215135
0.01934464
0.01812517
0.01629651
0.01590659
0.01586244
0.01588984
0.0159263
0.01595973
0.01598888
0.01601439
0.01603702
0.01605739
0.01607594
0.01609297
0.01610872
0.01612335
0.01613699
0.01614972
0.01616163
0.01617278
0.01618322
0.016193
0.01620216
0.01621077
0.01621887
0.01622653
0.01623382
0.01624082
0.01624763
0.01625434
0.0162611
0.01626803
0.01627533
0.01628319
0.01629187
0.01630168
0.016313
0.01632636
0.01634242
0.01636212
0.01638685
0.01641886
0.01646263
0.01652932
0.01665464
0.01698814
0.01830011
0.02491229
0.07437194
0.01919916
0.01706283
0.01638595
0.01596259
0.01587527
0.01590451
0.01595778
0.01600902
0.01605376
0.01609257
0.01612666
0.01615708
0.01618459
0.01620974
0.01623291
0.01625437
0.01627435
0.01629299
0.01631041
0.01632672
0.01634199
0.01635629
0.01636968
0.01638224
0.01639403
0.01640511
0.01641559
0.01642555
0.0164351
0.01644438
0.01645354
0.01646274
0.01647218
0.01648211
0.0164928
0.01650458
0.01651788
0.0165332
0.01655124
0.01657286
0.01659929
0.01663229
0.01667464
0.01673148
0.01681441
0.01695617
0.01727125
0.01830225
0.02370246
0.07143431
0.01700535
0.01628618
0.0160232
0.01597433
0.01603214
0.01611663
0.01619721
0.01626732
0.01632767
0.01638027
0.01642686
0.01646873
0.01650683
0.0165418
0.01657414
0.01660417
0.01663217
0.01665833
0.01668281
0.01670573
0.01672721
0.01674732
0.01676616
0.01678381
0.01680036
0.01681592
0.0168306
0.01684453
0.01685788
0.01687083
0.01688358
0.01689638
0.01690951
0.01692328
0.01693808
0.01695437
0.01697271
0.0169938
0.01701855
0.01704813
0.01708415
0.01712891
0.01718599
0.01726172
0.0173693
0.01754225
0.01788677
0.01889006
0.02402985
0.06877602
0.01645683
0.01608103
0.01600509
0.01608117
0.0162034
0.01632279
0.01642688
0.01651601
0.0165931
0.01666089
0.01672144
0.01677625
0.01682638
0.01687259
0.01691544
0.01695533
0.01699259
0.01702746
0.01706012
0.01709073
0.01711942