/*--------------------------------*- C++ -*----------------------------------*\
| =========                 |                                                 |
| \\      /  F ield         | OpenFOAM: The Open Source CFD Toolbox           |
|  \\    /   O peration     | Version:  2506                                  |
|   \\  /    A nd           | Website:  www.openfoam.com                      |
|    \\/     M anipulation  |                                                 |
\*---------------------------------------------------------------------------*/
FoamFile
{
    version     2.0;
    format      ascii;
    arch        "LSB;label=32;scalar=64";
    class       volScalarField;
    location    "2500/floor";
    object      damage;
}
// * * * * * * * * * * * * * * * * * * * * * * * * * * * * * * * * * * * * * //

dimensions      [0 0 0 0 0 0 0];

internalField   nonuniform List<scalar> 
2700
(
0.02043805
0.02045226
0.02046793
0.02048234
0.02049524
0.02050667
0.02051669
0.02052542
0.02053297
0.02053935
0.0205445
0.0205485
0.0205515
0.02055355
0.0205546
0.0205546
0.02055358
0.02055154
0.02054845
0.02054426
0.02053891
0.02053231
0.02052445
0.02051529
0.02050477
0.02049282
0.02047939
0.02046446
0.02044841
0.02043416
0.02045226
0.02046634
0.02048182
0.02049601
0.02050866
0.02051982
0.02052956
0.02053799
0.02054524
0.02055133
0.02055624
0.02056007
0.02056296
0.02056492
0.02056593
0.02056593
0.02056494
0.02056298
0.02055998
0.02055593
0.02055074
0.02054434
0.02053669
0.02052777
0.0205175
0.0205058
0.02049263
0.02047797
0.02046217
0.02044812
0.02046822
0.02048208
0.02049727
0.02051114
0.02052344
0.02053425
0.02054365
0.02055174
0.02055867
0.02056447
0.02056913
0.02057277
0.02057552
0.02057739
0.02057834
0.02057834
0.0205774
0.02057552
0.02057266
0.02056877
0.02056377
0.02055761
0.02055024
0.0205416
0.02053164
0.02052027
0.02050743
0.02049309
0.02047761
0.02046381
0.02048304
0.02049663
0.02051149
0.020525
0.02053694
0.02054739
0.02055644
0.0205642
0.02057082
0.02057634
0.02058077
0.02058423
0.02058683
0.0205886
0.0205895
0.0205895
0.02058861
0.02058683
0.0205841
0.02058037
0.02057558
0.02056967
0.02056257
0.02055422
0.02054457
0.02053354
0.02052104
0.02050706
0.02049191
0.02047837
0.02049635
0.02050967
0.02052419
0.02053734
0.02054891
0.020559
0.02056771
0.02057515
0.02058147
0.02058672
0.02059094
0.02059421
0.02059668
0.02059835
0.0205992
0.0205992
0.02059837
0.02059667
0.02059407
0.0205905
0.02058592
0.02058025
0.02057341
0.02056536
0.02055602
0.02054532
0.02053317
0.02051953
0.02050471
0.02049144
0.02050816
0.02052122
0.02053541
0.02054821
0.02055943
0.02056917
0.02057754
0.02058468
0.02059071
0.02059571
0.02059971
0.02060282
0.02060515
0.02060674
0.02060754
0.02060755
0.02060676
0.02060515
0.02060267
0.02059926
0.02059487
0.02058943
0.02058285
0.02057508
0.02056604
0.02055566
0.02054384
0.02053053
0.02051604
0.02050303
0.02051854
0.02053135
0.02054522
0.02055768
0.02056856
0.02057798
0.02058604
0.02059289
0.02059865
0.02060341
0.02060722
0.02061017
0.02061238
0.02061388
0.02061465
0.02061466
0.02061391
0.02061239
0.02061003
0.02060676
0.02060255
0.02059732
0.02059099
0.02058348
0.02057472
0.02056464
0.02055313
0.02054014
0.02052596
0.02051321
0.02052757
0.02054014
0.02055371
0.02056585
0.02057642
0.02058554
0.02059331
0.02059989
0.02060541
0.02060995
0.02061357
0.02061638
0.02061848
0.02061991
0.02062065
0.02062066
0.02061995
0.02061851
0.02061626
0.02061313
0.02060908
0.02060405
0.02059793
0.02059066
0.02058216
0.02057235
0.02056114
0.02054845
0.02053456
0.02052205
0.02053537
0.0205477
0.02056098
0.02057283
0.02058311
0.02059195
0.02059946
0.02060579
0.02061108
0.02061542
0.02061888
0.02062155
0.02062356
0.02062493
0.02062563
0.02062565
0.02062499
0.02062362
0.02062146
0.02061845
0.02061455
0.0206097
0.02060379
0.02059673
0.02058847
0.02057892
0.02056798
0.02055556
0.02054195
0.02052965
0.02054238
0.02055413
0.02056708
0.02057866
0.02058869
0.02059727
0.02060455
0.02061066
0.02061575
0.02061992
0.02062323
0.02062579
0.02062771
0.02062903
0.0206297
0.02062973
0.0206291
0.0206278
0.02062573
0.02062283
0.02061906
0.02061437
0.02060863
0.02060174
0.02059369
0.02058436
0.02057365
0.02056148
0.02054812
0.02053604
0.02055238
0.02056012
0.02057211
0.02058339
0.02059319
0.02060156
0.02060864
0.02061457
0.0206195
0.02062352
0.02062671
0.02062918
0.02063103
0.0206323
0.02063296
0.02063299
0.0206324
0.02063115
0.02062915
0.02062634
0.02062269
0.02061811
0.02061245
0.02060553
0.02059755
0.0205884
0.02057788
0.02056593
0.02055282
0.02054106
0.02058375
0.02056848
0.02057641
0.02058711
0.02059671
0.02060491
0.02061183
0.02061761
0.02062241
0.02062631
0.0206294
0.02063179
0.02063359
0.02063483
0.02063547
0.02063551
0.02063495
0.02063374
0.02063181
0.02062907
0.02062549
0.02062092
0.02061482
0.02060618
0.0205974
0.02058821
0.02057782
0.02056611
0.02055362
0.02054349
0.02058094
0.02057221
0.02057958
0.0205899
0.02059932
0.02060738
0.02061418
0.02061985
0.02062454
0.02062835
0.02063137
0.0206337
0.02063546
0.02063667
0.02063731
0.02063735
0.02063681
0.02063565
0.02063376
0.02063107
0.02062749
0.02062245
0.02061296
0.02059157
0.02057549
0.02056505
0.02055432
0.02054312
0.02053356
0.02053337
0.02066278
0.02059035
0.02058359
0.02059193
0.02060106
0.02060902
0.02061573
0.02062132
0.02062594
0.02062969
0.02063265
0.02063495
0.02063668
0.02063787
0.0206385
0.02063856
0.02063803
0.02063689
0.02063503
0.02063236
0.02062864
0.02062187
0.02059998
0.02052572
0.02047467
0.02045819
0.02044325
0.02043294
0.02043198
0.02046753
0.02068211
0.02059566
0.02058517
0.0205929
0.02060192
0.02060983
0.0206165
0.02062204
0.02062663
0.02063035
0.02063329
0.02063556
0.02063728
0.02063846
0.02063909
0.02063915
0.02063863
0.0206375
0.02063566
0.02063301
0.02062924
0.02062195
0.02059661
0.02050954
0.02045113
0.02043331
0.02041776
0.02040624
0.02039679
0.02039672
0.02068436
0.02059624
0.02058525
0.02059291
0.02060192
0.02060982
0.02061649
0.02062204
0.02062662
0.02063035
0.02063332
0.02063556
0.02063727
0.02063846
0.02063908
0.02063914
0.02063862
0.02063749
0.02063565
0.020633
0.02062922
0.02062184
0.02059595
0.02050705
0.0204477
0.02042969
0.02041406
0.02040208
0.02038983
0.02037991
0.02068101
0.02059463
0.02058419
0.02059197
0.02060104
0.020609
0.02061571
0.0206213
0.02062593
0.02062978
0.02063316
0.02063504
0.02063667
0.02063785
0.02063848
0.02063853
0.02063801
0.02063686
0.020635
0.02063233
0.02062853
0.02062112
0.0205952
0.02050627
0.02044688
0.02042883
0.02041314
0.02040104
0.02038827
0.02037682
0.02066019
0.02058822
0.02058163
0.02059007
0.0205993
0.02060735
0.02061415
0.02061982
0.02062462
0.02062936
0.0206366
0.02063471
0.02063554
0.02063664
0.02063727
0.02063731
0.02063677
0.0206356
0.02063371
0.020631
0.02062716
0.02061979
0.02059436
0.02050719
0.02044866
0.02043071
0.02041498
0.02040278
0.02038987
0.02037818
0.02057287
0.02056829
0.02057656
0.0205871
0.02059666
0.02060486
0.02061178
0.0206176
0.02062288
0.02063152
0.02065957
0.020637
0.02063406
0.0206348
0.02063541
0.02063544
0.02063488
0.02063368
0.02063174
0.02062897
0.02062514
0.02061823
0.0205962
0.02052178
0.02047055
0.02045386
0.02043852
0.02042625
0.02041322
0.02040141
0.02054992
0.02055983
0.02057204
0.02058332
0.02059311
0.02060148
0.02060856
0.02061449
0.02061953
0.02062447
0.02063188
0.02063012
0.02063104
0.02063221
0.02063286
0.02063288
0.02063229
0.02063104
0.02062904
0.02062623
0.0206225
0.02061728
0.02060758
0.02058597
0.02056965
0.02055894
0.02054788
0.02053591
0.02052288
0.02051082
0.02054204
0.020554
0.02056697
0.02057855
0.02058857
0.02059715
0.02060442
0.02061053
0.02061564
0.0206199
0.02062362
0.02062576
0.02062758
0.02062888
0.02062956
0.02062958
0.02062895
0.02062765
0.02062557
0.02062267
0.0206189
0.0206141
0.02060774
0.02059882
0.02058973
0.02058022
0.02056955
0.02055786
0.02054589
0.02053248
0.02053521
0.02054755
0.02056083
0.02057268
0.02058295
0.02059178
0.02059929
0.02060561
0.02061091
0.02061525
0.02061873
0.02062137
0.02062337
0.02062473
0.02062543
0.02062545
0.02062479
0.02062342
0.02062126
0.02061825
0.02061435
0.02060949
0.02060351
0.02059624
0.0205879
0.02057839
0.02056795
0.02055877
0.020556
0.02053343
0.02052738
0.02053995
0.02055351
0.02056565
0.02057622
0.02058532
0.0205931
0.02059966
0.02060518
0.02060972
0.02061333
0.02061613
0.02061823
0.02061966
0.02062039
0.0206204
0.0206197
0.02061826
0.020616
0.02061287
0.02060883
0.0206038
0.02059768
0.02059039
0.02058191
0.02057229
0.02056284
0.02056279
0.02060003
0.02053835
0.02051831
0.02053111
0.02054497
0.02055742
0.0205683
0.02057771
0.02058577
0.0205926
0.02059836
0.02060311
0.02060691
0.02060986
0.02061206
0.02061357
0.02061433
0.02061434
0.02061359
0.02061207
0.02060971
0.02060645
0.02060224
0.02059701
0.02059069
0.02058318
0.02057443
0.02056441
0.02055342
0.02054367
0.02054034
0.02051732
0.02050788
0.02052093
0.02053511
0.0205479
0.02055911
0.02056884
0.02057721
0.02058433
0.02059036
0.02059535
0.02059934
0.02060244
0.02060477
0.02060635
0.02060716
0.02060716
0.02060637
0.02060476
0.02060229
0.02059888
0.02059449
0.02058905
0.02058249
0.02057472
0.02056569
0.02055533
0.0205436
0.02053078
0.0205177
0.02050339
0.02049601
0.02050933
0.02052384
0.02053698
0.02054854
0.02055862
0.02056731
0.02057474
0.02058106
0.0205863
0.0205905
0.02059377
0.02059623
0.0205979
0.02059875
0.02059875
0.02059791
0.02059622
0.02059362
0.02059006
0.02058548
0.02057981
0.02057299
0.02056495
0.02055562
0.02054493
0.0205328
0.02051922
0.02050455
0.02049116
0.02048266
0.02049624
0.02051109
0.02052459
0.02053651
0.02054695
0.02055598
0.02056373
0.02057035
0.02057585
0.02058028
0.02058373
0.02058632
0.02058809
0.02058899
0.02058898
0.0205881
0.02058632
0.02058359
0.02057986
0.02057508
0.02056918
0.02056208
0.02055375
0.02054412
0.02053309
0.02052061
0.02050664
0.02049152
0.02047798
0.02046779
0.02048164
0.02049682
0.02051067
0.02052296
0.02053375
0.02054314
0.02055122
0.02055814
0.02056393
0.02056858
0.02057222
0.02057495
0.02057682
0.02057776
0.02057776
0.02057683
0.02057495
0.02057209
0.02056821
0.02056322
0.02055707
0.0205497
0.02054108
0.02053113
0.02051977
0.02050695
0.02049263
0.02047716
0.02046337
0.02045179
0.02046586
0.02048132
0.0204955
0.02050813
0.02051928
0.02052901
0.02053743
0.02054466
0.02055075
0.02055565
0.02055946
0.02056234
0.0205643
0.0205653
0.0205653
0.02056432
0.02056235
0.02055937
0.02055532
0.02055014
0.02054375
0.02053611
0.0205272
0.02051694
0.02050526
0.02049211
0.02047746
0.02046168
0.02044764
0.02043755
0.02045177
0.02046738
0.0204818
0.02049467
0.0205061
0.02051611
0.02052483
0.02053236
0.02053877
0.02054388
0.02054785
0.02055084
0.02055289
0.02055393
0.02055393
0.02055291
0.02055087
0.02054778
0.02054361
0.02053826
0.02053168
0.02052383
0.02051469
0.02050418
0.02049224
0.02047883
0.02046391
0.02044788
0.02043365
0.008144411
0.008182653
0.008223244
0.008260312
0.008293488
0.008322845
0.008348564
0.008370959
0.008390294
0.008406634
0.008419808
0.008430003
0.008437692
0.008442936
0.008445602
0.008445568
0.008442893
0.00843761
0.008429623
0.008418842
0.008405046
0.008388056
0.008367806
0.008344242
0.008317165
0.008286418
0.008251852
0.008213411
0.008171772
0.00813332
0.008182777
0.008220632
0.008260693
0.00829715
0.008329617
0.008358241
0.008383224
0.008404818
0.008423387
0.008438967
0.008451517
0.008461284
0.008468658
0.008473683
0.008476226
0.008476186
0.008473618
0.008468532
0.00846082
0.008450383
0.008437021
0.008420555
0.00840089
0.008377949
0.008351538
0.008321484
0.008287627
0.008249892
0.008208924
0.008171016
0.00822422
0.008261443
0.008300717
0.008336317
0.008367883
0.008395602
0.008419699
0.008440428
0.008458186
0.008473022
0.008484951
0.008494241
0.008501249
0.008506017
0.008508422
0.008508379
0.008505935
0.008501084
0.0084937
0.008483677
0.008470833
0.008454991
0.008436022
0.008413826
0.008388212
0.008358994
0.008325996
0.008289118
0.008248974
0.008211737
0.008262394
0.008298909
0.008337313
0.008371987
0.008402608
0.008429395
0.008452593
0.008472472
0.008489438
0.008503564
0.008514899
0.008523719
0.00853036
0.008534872
0.008537142
0.008537101
0.008534782
0.008530171
0.008523123
0.008513523
0.008501207
0.008485998
0.00846774
0.008446302
0.008421503
0.008393146
0.008361035
0.008325048
0.008285765
0.008249239
0.008296656
0.008332449
0.008369964
0.008403704
0.008433385
0.00845925
0.008481566
0.008500618
0.008516813
0.008530254
0.008541017
0.00854938
0.008555664
0.008559931
0.008562077
0.008562037
0.008559843
0.008555468
0.008548751
0.008539568
0.008527769
0.00851318
0.008495617
0.008474923
0.008450928
0.008423421
0.008392191
0.008357096
0.008318678
0.008282871
0.008327077
0.00836216
0.008398804
0.008431632
0.008460401
0.008485375
0.008506843
0.008525103
0.00854056
0.008553348
0.008563565
0.008571491
0.008577439
0.008581477
0.00858351
0.008583475
0.008581403
0.008577253
0.008570853
0.008562069
0.008550765
0.008536767
0.008519869
0.008499888
0.008476664
0.008449978
0.008419601
0.008385372
0.0083478
0.008312698
0.008353808
0.008388215
0.008424025
0.008455987
0.00848389
0.008508023
0.008528692
0.008546208
0.008560974
0.00857315
0.008582859
0.008590379
0.008596014
0.008599843
0.008601775
0.008601745
0.008599791
0.008595853
0.00858975
0.008581339
0.008570496
0.00855705
0.008540771
0.008521456
0.008498956
0.008473043
0.008443474
0.008410067
0.008373303
0.00833888
0.008377045
0.008410814
0.008445843
0.008476997
0.008504096
0.00852745
0.00854738
0.00856421
0.008578343
0.008589957
0.0085992
0.008606349
0.008611702
0.008615345
0.008617188
0.008617166
0.008615322
0.008611581
0.00860575
0.00859768
0.008587257
0.008574314
0.0085586
0.008539896
0.008518062
0.008492863
0.008464042
0.008431401
0.008395395
0.008361608
0.008397144
0.00843026
0.008464551
0.00849495
0.008521302
0.008543933
0.008563181
0.008579378
0.008592932
0.008604032
0.008612852
0.008619665
0.008624766
0.008628245
0.008630009
0.008629998
0.008628258
0.0086247
0.008619118
0.00861136
0.008601322
0.008588836
0.008573638
0.008555492
0.008534272
0.008509735
0.00848161
0.008449683
0.008414381
0.00838119
0.008415177
0.008446788
0.00848024
0.008509947
0.008535633
0.008557623
0.008576265
0.008591902
0.008604945
0.008615593
0.008624041
0.008630561
0.008635445
0.008638786
0.008640484
0.008640488
0.008638841
0.008635447
0.008630086
0.008622601
0.008612899
0.008600813
0.008586059
0.008568378
0.008547687
0.008523731
0.008496221
0.008464928
0.008430261
0.008397624
0.008442633
0.00846217
0.008493143
0.008522097
0.008547213
0.008568666
0.008586802
0.008601972
0.008614587
0.00862486
0.008632998
0.008639276
0.008643984
0.008647213
0.008648859
0.008648879
0.008647314
0.00864406
0.008638885
0.008631627
0.0086222
0.008610424
0.008595939
0.008578324
0.008557908
0.008534401
0.008507394
0.00847664
0.008442583
0.008410666
0.008556581
0.008485018
0.008504137
0.008531652
0.008556252
0.00857727
0.008594997
0.008609791
0.008622063
0.008632038
0.008639927
0.008646016
0.008650584
0.008653724
0.008655335
0.008655375
0.008653879
0.008650739
0.008645714
0.008638634
0.008629405
0.008617737
0.008602596
0.008581878
0.00855988
0.008536395
0.008509677
0.008479457
0.008446621
0.008417816
0.00850874
0.00849012
0.008511778
0.008538756
0.008562956
0.00858363
0.008601039
0.008615542
0.008627549
0.008637294
0.008644993
0.008650934
0.0086554
0.008658477
0.008660063
0.00866012
0.008658679
0.008655627
0.008650719
0.00864377
0.008634605
0.008622195
0.008600835
0.008553486
0.008514197
0.008487923
0.008459432
0.008430041
0.008402751
0.008395119
0.008749469
0.00853199
0.008520799
0.008543811
0.008567423
0.008587836
0.008605023
0.008619324
0.008631149
0.008640738
0.008648307
0.008654146
0.008658543
0.008661577
0.008663148
0.008663219
0.008661816
0.008658826
0.008653997
0.008647117
0.008637742
0.00862218
0.008575075
0.008389773
0.008245242
0.008202791
0.008148776
0.008119928
0.008111205
0.008203429
0.00879342
0.008543043
0.008524382
0.008546264
0.008569647
0.008589931
0.008607005
0.008621201
0.008632931
0.008642439
0.008649943
0.008655727
0.008660087
0.008663099
0.008664664
0.008664743
0.00866336
0.008660401
0.008655613
0.008648773
0.008639355
0.008622925
0.008569456
0.008357363
0.008195362
0.008149908
0.008093612
0.008062407
0.008035369
0.00802804
0.008797815
0.008544075
0.00852452
0.008546266
0.008569634
0.008589917
0.008606991
0.008621187
0.008632918
0.008642442
0.008650013
0.008655728
0.008660072
0.008663081
0.008664645
0.008664723
0.008663339
0.00866038
0.008655591
0.008648748
0.008639312
0.008622731
0.008568323
0.008352834
0.008188909
0.008143086
0.008086577
0.00805459
0.008022319
0.007994095
0.008790586
0.008540383
0.008521865
0.00854388
0.008567389
0.008587794
0.008604981
0.008619283
0.008631134
0.008640958
0.008649586
0.008654363
0.008658521
0.008661525
0.008663091
0.00866316
0.008661755
0.008658763
0.008653931
0.008647039
0.008637542
0.008620888
0.008566399
0.008350824
0.008186799
0.008140867
0.008084226
0.008051985
0.008018781
0.007987683
0.008742793
0.008526523
0.00851577
0.008539051
0.008562909
0.008583556
0.008600963
0.008615483
0.008627734
0.008639828
0.008659797
0.008653465
0.008655577
0.008658403
0.008659967
0.00866002
0.008658575
0.008655521
0.008650607
0.008643618
0.008634022
0.00861738
0.008563677
0.00835133
0.008189041
0.00814326
0.008086525
0.008054051
0.008020526
0.007988948
0.008486113
0.008480013
0.008504045
0.008531573
0.008556135
0.008577146
0.008594875
0.008609752
0.008623258
0.008646789
0.00874567
0.008660764
0.008651768
0.008653666
0.008655187
0.008655218
0.008653717
0.008650574
0.008645543
0.008638423
0.008628762
0.008612862
0.008565379
0.008379667
0.008234672
0.008191688
0.008136813
0.008104283
0.008070453
0.00803856
0.008432832
0.008460916
0.00849291
0.008521905
0.008547014
0.008568462
0.008586594
0.008601778
0.008614635
0.008627253
0.008647657
0.008641661
0.008644014
0.008646992
0.008648615
0.00864863
0.008647061
0.008643804
0.008638624
0.008631352
0.008621803
0.008608934
0.008587057
0.008539145
0.008499231
0.008472272
0.008442977
0.008412082
0.008378171
0.00834572
0.008414132
0.008446417
0.008479958
0.008509663
0.008535342
0.008557325
0.008575959
0.008591591
0.008604654
0.008615532
0.008625035
0.008630487
0.008635128
0.008638437
0.008640127
0.008640127
0.008638477
0.00863508
0.008629717
0.008622228
0.008612506
0.008600251
0.008584449
0.008563011
0.008540221
0.008515891
0.008488388
0.008457953
0.008426119
0.008390787
0.008396745
0.008429893
0.008464181
0.00849457
0.008520912
0.008543533
0.00856277
0.008578957
0.008592503
0.008603611
0.008612493
0.008619226
0.008624303
0.008627774
0.008629532
0.008629518
0.008627775
0.008624214
0.008618632
0.008610874
0.008600835
0.008588334
0.008573028
0.008554524
0.008533138
0.008508671
0.008481465
0.008456005
0.008446317
0.00838855
0.008376587
0.008410348
0.008445365
0.008476505
0.008503591
0.008526931
0.008546846
0.008563662
0.008577782
0.008589384
0.00859862
0.008605754
0.008611098
0.008614734
0.008616571
0.008616545
0.008614699
0.008610957
0.008605127
0.00859706
0.008586642
0.008573703
0.008557988
0.008539266
0.008517457
0.008492596
0.008467275
0.008463812
0.008584686
0.008397875
0.008353229
0.008387624
0.008423418
0.008455362
0.008483247
0.008507362
0.008528012
0.008545509
0.008560259
0.008572419
0.008582113
0.008589619
0.008595244
0.008599065
0.008600992
0.008600959
0.008599003
0.008595066
0.008588966
0.008580561
0.008569725
0.008556289
0.008540022
0.00852072
0.008498244
0.008472446
0.008443812
0.008416882
0.008405742
0.008346751
0.008326377
0.008361443
0.008398065
0.008430872
0.008459618
0.008484569
0.008506014
0.008524252
0.008539688
0.008552457
0.008562656
0.008570567
0.008576502
0.008580532
0.008582559
0.008582521
0.008580449
0.008576301
0.008569907
0.008561131
0.008549838
0.008535854
0.008518972
0.008499009
0.008475807
0.00844916
0.008418946
0.008385607
0.008350894
0.008313136
0.008295835
0.008331607
0.008369097
0.008402811
0.008432465
0.008458303
0.008480592
0.008499619
0.00851579
0.008529209
0.008539951
0.008548296
0.008554566
0.008558825
0.008560964
0.008560922
0.008558728
0.008554356
0.008547647
0.008538475
0.00852669
0.008512118
0.008494575
0.008473903
0.008449933
0.008422455
0.008391269
0.008356289
0.008318152
0.008282135
0.008261452
0.008297946
0.008336321
0.008370965
0.008401556
0.008428313
0.008451481
0.008471331
0.00848827
0.008502373
0.008513685
0.008522485
0.00852911
0.008533612
0.008535876
0.008535832
0.008533515
0.008528908
0.00852187
0.008512284
0.008499984
0.008484795
0.008466559
0.008445147
0.008420377
0.00839205
0.008359972
0.008324025
0.008284794
0.008248278
0.008223163
0.008260365
0.008299605
0.008335174
0.008366705
0.008394393
0.008418458
0.008439155
0.008456885
0.008471698
0.0084836
0.008492867
0.008499858
0.008504614
0.008507013
0.008506968
0.008504525
0.008499681
0.008492308
0.0084823
0.008469475
0.008453655
0.008434711
0.008412544
0.008386961
0.008357777
0.008324814
0.008287972
0.008247865
0.008210658
0.008181626
0.008219468
0.008259465
0.008295901
0.008328321
0.008356923
0.00838187
0.008403431
0.008421966
0.008437543
0.008450051
0.008459785
0.008467139
0.008472151
0.008474688
0.008474645
0.00847208
0.008467001
0.0084593
0.00844888
0.00843554
0.008419098
0.00839946
0.00837655
0.008350173
0.008320155
0.008286336
0.00824864
0.008207711
0.008169836
0.008143203
0.00818148
0.008221905
0.008259007
0.008292089
0.008321463
0.008347136
0.008369502
0.008388788
0.008405205
0.008418281
0.008428419
0.00843608
0.00844131
0.008443969
0.008443932
0.00844126
0.008435984
0.008428009
0.008417246
0.008403474
0.00838651
0.008366289
0.008342756
0.008315715
0.008285007
0.008250482
0.008212081
0.008170483
0.00813207
0.005012826
0.005123642
0.005235339
0.005336638
0.005427231
0.005507356
0.005577492
0.005638488
0.00569115
0.005735635
0.005771419
0.005799059
0.005819954
0.005834209
0.005841415
0.005841198
0.005833764
0.005819224
0.005797302
0.005767781
0.005730013
0.005683495
0.005628076
0.005563641
0.005489608
0.005405551
0.005311063
0.005205898
0.005091073
0.004979283
0.005124374
0.005233958
0.005344036
0.005443517
0.005532032
0.005610035
0.005678068
0.005736786
0.005787305
0.005829658
0.005863695
0.00589014
0.005910137
0.00592376
0.005930608
0.005930375
0.005923255
0.005909286
0.005888156
0.005859622
0.005823106
0.005778104
0.005724373
0.005661734
0.00558962
0.005507562
0.005415117
0.005311982
0.005199096
0.005088933
0.005238715
0.005346413
0.005454258
0.005551335
0.005637348
0.005712853
0.005778457
0.005834821
0.005883145
0.005923491
0.005955855
0.005981011
0.006000002
0.006012918
0.006019382
0.006019144
0.006012365
0.005999046
0.005978821
0.00595142
0.005916328
0.005873048
0.005821239
0.005760649
0.00569073
0.005610976
0.005520895
0.005420122
0.00530951
0.005201288
0.005343224
0.005448861
0.005554284
0.005648808
0.00573223
0.005805183
0.005868332
0.005922384
0.005968547
0.006006961
0.006037714
0.006061591
0.006079578
0.006091795
0.006097885
0.006097651
0.006091214
0.006078552
0.006059246
0.006032997
0.005999346
0.005957804
0.005907942
0.005849422
0.005781735
0.005704337
0.005616684
0.005518351
0.005410109
0.005303932
0.00543696
0.005540503
0.005643467
0.005735428
0.005816275
0.005886707
0.005947443
0.005999244
0.006043299
0.006079841
0.006109031
0.006131664
0.006148677
0.006160222
0.006165969
0.006165739
0.006159641
0.006147621
0.006129217
0.0061041
0.006071859
0.006032014
0.005984057
0.005927567
0.005862077
0.005787007
0.005701765
0.005605869
0.00550001
0.005395903
0.005520202
0.005621688
0.005722241
0.005811703
0.005890052
0.005958049
0.006016468
0.006066108
0.006108144
0.0061429
0.006170601
0.006192047
0.006208137
0.006219054
0.006224491
0.006224267
0.006218501
0.006207094
0.006189552
0.006165518
0.006134623
0.006096396
0.006050257
0.005995709
0.005932328
0.005859503
0.005776595
0.00568307
0.005579541
0.00547747
0.005593361
0.005692885
0.005791135
0.00587822
0.005954202
0.006019901
0.006076138
0.006123748
0.006163897
0.006196981
0.006223297
0.006243632
0.006258869
0.006269211
0.006274372
0.006274157
0.006268707
0.006257874
0.006241136
0.006218112
0.006188469
0.006151747
0.0061073
0.006054568
0.005993165
0.005922454
0.005841756
0.005750484
0.005649181
0.005549063
0.005656947
0.005754626
0.005850722
0.005935594
0.006009382
0.006072955
0.006127178
0.006172917
0.006211341
0.00624289
0.006267941
0.006287266
0.006301736
0.006311568
0.006316482
0.006316282
0.006311127
0.006300823
0.006284817
0.006262711
0.006234208
0.006198855
0.006155947
0.006104875
0.00604529
0.005976527
0.005897871
0.005808694
0.005709477
0.005611196
0.005711937
0.005807786
0.005901852
0.005984656
0.006056395
0.00611799
0.006170348
0.006214364
0.006251207
0.006281351
0.006305249
0.00632366
0.006337441
0.006346826
0.00635152
0.006351344
0.006346467
0.006336653
0.006321319
0.006300051
0.006272589
0.006238482
0.006196982
0.006147434
0.006089529
0.006022581
0.005945834
0.005858614
0.005761338
0.005664777
0.00576057
0.005852805
0.005944712
0.006025638
0.006095556
0.006155397
0.006206099
0.006248587
0.006284032
0.006312943
0.006335829
0.006353445
0.006366634
0.006375645
0.006380154
0.00638001
0.006375382
0.006366005
0.00635126
0.006330725
0.006304172
0.006271153
0.006230879
0.006182637
0.006126194
0.00606084
0.005985779
0.005900298
0.005804767
0.005709775
0.005832927
0.005893473
0.005979781
0.006058809
0.006127185
0.006185561
0.006234885
0.006276104
0.006310386
0.006338274
0.006360321
0.006377285
0.006389996
0.006398701
0.006403063
0.006402957
0.006398541
0.006389539
0.006375287
0.006355355
0.006329543
0.006297388
0.006257975
0.006210318
0.006154815
0.006090725
0.006017042
0.005933017
0.005839049
0.00574575
0.006279198
0.005953533
0.006009079
0.006084834
0.006151869
0.006209064
0.006257278
0.006297475
0.006330826
0.006357907
0.006379279
0.006395733
0.006408063
0.006416525
0.006420785
0.006420727
0.006416491
0.006407789
0.00639394
0.006374483
0.006349221
0.006317545
0.006277491
0.006225116
0.006167138
0.006103471
0.006030562
0.005947814
0.005856201
0.005768433
0.005980618
0.005959858
0.006029164
0.006104156
0.006170182
0.006226449
0.006273796
0.0063132
0.006345828
0.006372289
0.006393146
0.0064092
0.006421255
0.006429541
0.006433733
0.006433717
0.006429621
0.00642115
0.006407609
0.006388515
0.006363548
0.00633099
0.00628104
0.006178312
0.006084095
0.006015259
0.005935597
0.005851892
0.005769752
0.00572339
0.006769729
0.006051074
0.006049721
0.006117542
0.006182359
0.006237946
0.006284689
0.006323545
0.006355678
0.006381716
0.00640222
0.006417995
0.006429864
0.006438035
0.006442184
0.006442202
0.006438205
0.006429894
0.006416564
0.006397686
0.00637254
0.006335018
0.006236451
0.005748599
0.005326588
0.005219129
0.004991543
0.004904893
0.004859638
0.005121905
0.006862624
0.006072852
0.006058233
0.006124114
0.006188432
0.006243677
0.006290112
0.006328683
0.006360555
0.006386374
0.006406699
0.006422324
0.006434098
0.006442211
0.00644634
0.006446378
0.006442433
0.006434203
0.006420981
0.006402217
0.006377085
0.006338339
0.006229483
0.005690851
0.005232124
0.00511894
0.004883607
0.004792899
0.004711448
0.004665985
0.006870213
0.006074466
0.006058422
0.006124102
0.006188399
0.006243642
0.006290076
0.006328646
0.006360521
0.006386367
0.006406818
0.006422315
0.006434057
0.006442165
0.006446291
0.006446327
0.00644238
0.006434148
0.006420924
0.006402156
0.006376998
0.006338033
0.006227755
0.005683576
0.005221428
0.005107614
0.004871808
0.0047799
0.004689836
0.004603777
0.006854915
0.006065589
0.006051354
0.006117599
0.006182264
0.006237839
0.006284581
0.006323439
0.006355619
0.006382097
0.00640479
0.006418368
0.006429788
0.006437903
0.006442041
0.006442053
0.006438051
0.006429735
0.006416399
0.0063975
0.006372177
0.006333015
0.006222517
0.005678099
0.005215682
0.005101565
0.004865417
0.004772982
0.004681347
0.004590437
0.006752261
0.006036313
0.006036005
0.006104546
0.006170034
0.00622626
0.006273604
0.006313038
0.006346125
0.006377394
0.006428253
0.006414299
0.006421531
0.006429346
0.006433494
0.006433466
0.006429362
0.006420884
0.006407331
0.006388175
0.006362562
0.006323243
0.006213747
0.005674423
0.005214909
0.00510084
0.004864427
0.004771381
0.004678976
0.004587064
0.005924127
0.005933666
0.006008229
0.006084565
0.006151568
0.006208753
0.00625697
0.006297321
0.006333185
0.006392881
0.006748956
0.006430707
0.0064104
0.006416327
0.006420415
0.006420337
0.00641609
0.006407379
0.006393516
0.006373995
0.006348086
0.006309648
0.006210053
0.005721091
0.005297814
0.005188923
0.004959387
0.004868475
0.004775226
0.004682455
0.005804165
0.00589011
0.005979144
0.006058313
0.00612668
0.006185046
0.00623436
0.0062756
0.006310332
0.00634302
0.006395058
0.006382013
0.0063899
0.006398131
0.006402447
0.006402328
0.006397903
0.006388892
0.006374629
0.006354672
0.006328681
0.006294884
0.006243532
0.006139274
0.00604335
0.005972648
0.005890913
0.005806363
0.00571264
0.005618521
0.005758017
0.005851871
0.005943989
0.006024912
0.006094813
0.006154636
0.006205319
0.006247793
0.00628327
0.006312607
0.00633767
0.006353077
0.006365807
0.006374756
0.006379247
0.006379093
0.006374455
0.006365072
0.006350321
0.006329778
0.006303195
0.006269932
0.006228082
0.006173751
0.006113609
0.006047616
0.00597241
0.005888285
0.005797775
0.005697989
0.005710936
0.005806851
0.005900907
0.005983686
0.0060554
0.006116969
0.006169299
0.006213289
0.00625011
0.006280262
0.006304272
0.006322528
0.006336261
0.006345628
0.006350308
0.00635012
0.006345237
0.006335417
0.00632008
0.006298811
0.00627135
0.006237223
0.006195573
0.006145492
0.006087324
0.006020486
0.005945196
0.005869289
0.005826701
0.005677114
0.00565578
0.005753436
0.0058495
0.005934338
0.006008091
0.006071628
0.006125814
0.006171517
0.006209907
0.006241427
0.006266456
0.006285747
0.006300193
0.006310009
0.006314909
0.006314699
0.006309539
0.006299233
0.006283229
0.006261129
0.006232636
0.006197296
0.006154395
0.006103309
0.006043771
0.005975553
0.005902973
0.005874672
0.006295156
0.005683853
0.005591876
0.00569137
0.005789578
0.005876617
0.005952552
0.006018204
0.006074393
0.006121955
0.00616206
0.006195104
0.006221383
0.006241684
0.006256895
0.006267218
0.006272365
0.006272141
0.006266688
0.006255856
0.006239126
0.006216116
0.006186493
0.006149795
0.006105377
0.006052681
0.005991331
0.005920809
0.005841608
0.005761674
0.005715082
0.005561962
0.005518408
0.005619846