/*--------------------------------*- C++ -*----------------------------------*\
| =========                 |                                                 |
| \\      /  F ield         | OpenFOAM: The Open Source CFD Toolbox           |
|  \\    /   O peration     | Version:  2506                                  |
|   \\  /    A nd           | Website:  www.openfoam.com                      |
|    \\/     M anipulation  |                                                 |
\*---------------------------------------------------------------------------*/
FoamFile
{
    version     2.0;
    format      ascii;
    arch        "LSB;label=32;scalar=64";
    class       volScalarField;
    location    "2500/solid";
    object      T;
}
// * * * * * * * * * * * * * * * * * * * * * * * * * * * * * * * * * * * * * //

dimensions      [0 0 0 1 0 0 0];

internalField   nonuniform List<scalar> 
2304
(
307.8467
307.9458
307.9889
307.9969
307.9822
307.9244
307.9494
308.0551
308.0987
308.1067
308.0922
308.0336
307.9923
308.0985
308.1426
308.1508
308.1362
308.0771
308.0005
308.1066
308.1508
308.159
308.1443
308.0853
307.986
308.0922
308.1361
308.1443
308.1297
308.0707
307.9284
308.0335
308.0769
308.0849
308.0703
308.012
307.9118
307.9961
307.9995
308.1014
308.0165
308.053
308.1222
308.1587
308.0593
308.0674
308.165
308.173
308.0674
308.0591
308.1729
308.1648
308.0527
308.0161
308.1586
308.1221
307.9954
307.9065
308.1011
307.9946
308.0201
308.1223
308.0565
308.1588
308.1432
308.1799
308.1798
308.2168
308.1862
308.1942
308.2231
308.2312
308.1942
308.186
308.2311
308.223
308.1798
308.1432
308.2168
308.1801
308.1222
308.0153
308.1589
308.0522
308.0628
308.165
308.0709
308.173
308.186
308.223
308.194
308.2311
308.2294
308.2374
308.2374
308.2455
308.2374
308.2293
308.2455
308.2374
308.2231
308.1863
308.2311
308.1944
308.1652
308.0585
308.1732
308.0667
308.0709
308.173
308.0627
308.1649
308.194
308.2311
308.186
308.223
308.2374
308.2455
308.2293
308.2374
308.2455
308.2374
308.2374
308.2293
308.2311
308.1944
308.223
308.1863
308.1732
308.0667
308.1651
308.0584
308.0564
308.1587
308.0199
308.1222
308.1798
308.2167
308.1431
308.1798
308.223
308.2311
308.1861
308.1941
308.2311
308.223
308.194
308.1859
308.2168
308.18
308.1797
308.1431
308.1588
308.052
308.122
308.0151
307.9993
308.1012
307.9114
307.9957
308.122
308.1586
308.0161
308.0526
308.1648
308.1728
308.0589
308.067
308.1728
308.1646
308.0669
308.0586
308.1584
308.1219
308.0523
308.0157
308.1009
307.9943
307.995
307.906
307.9252
307.9286
308.0127
307.9825
308.0337
308.0707
307.997
308.0771
308.0851
307.9886
308.0851
308.0769
307.9454
308.0705
308.0336
307.8408
308.0122
307.923
308.0339
307.986
308.0708
308.0923
308.0922
308.1298
308.1068
308.1362
308.1444
308.0985
308.1444
308.1361
308.0551
308.1297
308.0924
307.944
308.0708
307.981
308.0771
308.0005
308.0852
308.1361
308.1066
308.1443
308.1508
308.1508
308.159
308.1425
308.159
308.1507
308.0988
308.1443
308.1069
307.9874
308.0853
307.9957
308.0852
307.9923
308.0771
308.1443
308.0985
308.1361
308.159
308.1426
308.1508
308.1507
308.1507
308.1425
308.1069
308.1361
308.0987
307.9957
308.0771
307.9873
308.0708
307.9492
308.0338
308.1297
308.055
308.0922
308.1443
308.0985
308.1066
308.1361
308.1066
308.0984
308.0923
308.092
308.0549
307.9809
308.0334
307.9437
308.0125
307.8462
307.9247
308.0705
307.9453
307.982
308.0849
307.9884
307.9965
308.0766
307.9965
307.9881
308.0333
307.9817
307.9449
307.9227
307.9239
307.8403
308.0122
307.9413
307.973
307.9742
308.1091
308.0512
308.067
308.0932
308.1404
308.0942
308.0985
308.1361
308.1428
308.1022
308.1009
308.1441
308.1208
308.0876
308.0787
308.1296
308.0449
308.03
308.0033
308.0721
308.1102
308.0536
308.0944
308.0694
308.2101
308.1781
308.1941
308.1941
308.2413
308.2211
308.2253
308.2371
308.2438
308.229
308.2277
308.2451
308.2221
308.2147
308.206
308.2308
308.1451
308.157
308.1291
308.173
308.1413
308.0964
308.1371
308.1007
308.2411
308.2209
308.2369
308.2251
308.2724
308.264
308.2682
308.2682
308.275
308.272
308.2708
308.2762
308.2532
308.2577
308.249
308.2619
308.1764
308.2
308.1722
308.2042
308.1439
308.1046
308.1451
308.1033
308.2437
308.2288
308.2449
308.2276
308.275
308.272
308.2762
308.2708
308.2775
308.28
308.2788
308.2788
308.2558
308.2658
308.2571
308.2645
308.179
308.2081
308.1803
308.2068
308.122
308.0901
308.1308
308.0813
308.222
308.2147
308.2307
308.2059
308.2532
308.2578
308.262
308.249
308.2557
308.2657
308.2645
308.257
308.234
308.2515
308.2428
308.2427
308.157
308.1937
308.1658
308.1849
308.0463
308.0327
308.0734
308.0061
308.1447
308.1567
308.1727
308.1288
308.1759
308.1996
308.2038
308.1717
308.1783
308.2076
308.2063
308.1796
308.1564
308.1932
308.1845
308.1652
308.08
308.1355
308.1077
308.1076
307.8698
307.8716
307.8969
307.9616
307.974
307.9898
307.9932
308.017
308.0213
307.9956
308.025
308.0237
307.9733
308.0104
308.0016
307.8978
307.9526
307.9257
307.9758
307.9653
307.9917
308.0713
308.0713
308.0875
308.103
308.115
308.1193
308.1055
308.1231
308.1218
308.0833
308.1085
308.0997
308.006
308.0498
308.0221
308.0187
307.9966
308.0229
308.1149
308.1028
308.1191
308.1469
308.1469
308.1512
308.1495
308.1551
308.1538
308.1273
308.1405
308.1316
308.0495
308.0814
308.0537
308.0268
307.9992
308.0256
308.123
308.1054
308.1217
308.1551
308.1495
308.1539
308.1577
308.1577
308.1565
308.1354
308.1431
308.1342
308.0576
308.084
308.0564
308.0123
307.9772
308.0036
308.1084
308.0833
308.0996
308.1405
308.1272
308.1315
308.143
308.1353
308.134
308.1208
308.1207
308.1118
308.043
308.0618
308.0341
307.9547
307.902
307.9281
308.0496
308.0061
308.0221
308.0811
308.0493
308.0536
308.0836
308.0573
308.056
308.0615
308.0427
308.0339
307.9846
307.9846
307.9575
308.0458
308.0306
308.0044
308.0725
308.0465
308.0329
308.0064
308.0736
308.081
308.1359
308.1082
308.1085
308.0176
307.9451
307.9406
307.9425
307.9753
307.9769
307.9804
308.0511
308.0312
307.9706
308.0392
308.0055
308.0773
308.0132
308.052
308.0342
307.9735
308.0407
308.0081
308.0786
308.0142
308.0863
308.1403
308.0743
308.0747
308.113
308.1134
308.0479
308.1211
308.0879
308.079
308.1299
308.1449
308.1569
308.129
308.1729
308.1569
308.1936
308.1657
308.1848
308.1135
308.0516
308.0323
308.0597
308.0674
308.0978
308.0754
308.1254
308.0881
308.0442
308.0961
308.0793
308.1341
308.0873
308.1494
308.1611
308.0949
308.138
308.1336
308.1769
308.1107
308.1613
308.1976
308.1313
308.15
308.17
308.1888
308.1226
308.143
308.1023
308.1011
308.1442
308.1761
308.1998
308.1719
308.204
308.1787
308.2078
308.1799
308.2066
308.1446
308.0944
308.0636
308.1023
308.0987
308.1404
308.1066
308.1472
308.1025
308.0662
308.1104
308.1013
308.1484
308.1092
308.1804
308.2038
308.1376
308.1692
308.1762
308.208
308.1418
308.183
308.2118
308.1456
308.1718
308.1842
308.2106
308.1444
308.1402
308.0939
308.0982
308.1359
308.1786
308.2078
308.1799
308.2065
308.1759
308.1996
308.1716
308.2038
308.1471
308.1025
308.0661
308.1103
308.1011
308.1484
308.109
308.1444
308.0941
308.0634
308.1021
308.0984
308.1401
308.1063
308.1829
308.2117
308.1455
308.1717
308.1841
308.2104
308.1442
308.1802
308.2036
308.1373
308.169
308.176
308.2078
308.1416
308.1089
308.0509
308.0668
308.093
308.1567
308.1934
308.1654
308.1847
308.1448
308.1568
308.1289
308.1728
308.1252
308.0878
308.0439
308.0958
308.079
308.1339
308.0871
308.1133
308.0513
308.032
308.0594
308.0671
308.0975
308.0752
308.1611
308.1974
308.1311
308.1499
308.1698
308.1887
308.1224
308.1493
308.161
308.0947
308.138
308.1335
308.1769
308.1105
308.0104
307.9376
307.9709
307.9708
308.0803
308.1357
308.1079
308.108
308.045
308.03
308.0033
308.0723
308.05
308.0306
307.9691
308.0387
308.0043
308.0768
308.0119
308.0153
307.9405
307.9376
307.9371
307.9727
307.9725
307.9776
308.0854
308.1401
308.0738
308.0738
308.1126
308.1127
308.0467
308.0499
308.0303
307.9683
308.0383
308.0039
308.0768
308.0116
308.1454
308.157
308.1295
308.173
308.1221
308.0901
308.0814
308.1308
308.1572
308.1935
308.1848
308.1659
308.1149
308.0548
308.0613
308.0359
308.0992
308.0705
308.0771
308.1499
308.1612
308.0955
308.1382
308.1341
308.1771
308.1113
308.1268
308.0912
308.0478
308.0976
308.0824
308.1354
308.0889
308.1617
308.1976
308.1501
308.1318
308.1889
308.1704
308.1232
308.2221
308.2149
308.2061
308.2309
308.2221
308.2147
308.206
308.2308
308.2341
308.2516
308.2428
308.2428
308.214
308.1821
308.1592
308.1592
308.198
308.198
308.1752
308.2259
308.2187
308.1711
308.196
308.21
308.2347
308.1872
308.2259
308.2186
308.1711
308.1959
308.2099
308.2346
308.1871
308.2378
308.2553
308.208
308.2079
308.2466
308.2465
308.1992
308.2439
308.2291
308.2279
308.2451
308.2533
308.2578
308.2491
308.262
308.2559
308.2658
308.2571
308.2646
308.2451
308.2249
308.1904
308.2023
308.2291
308.2409
308.2065
308.2477
308.2329
308.193
308.2103
308.2317
308.2489
308.2091
308.2571
308.2616
308.2143
308.2274
308.2529
308.2658
308.2186
308.2596
308.2696
308.2224
308.23
308.2609
308.2684
308.2211
308.2412
308.2209
308.2251
308.237
308.2558
308.2658
308.257
308.2645
308.2532
308.2577
308.249
308.2619
308.2476
308.2328
308.1929
308.2103
308.2316
308.2489
308.209
308.245
308.2248
308.1903
308.2022
308.229
308.2408
308.2064
308.2596
308.2696
308.2223
308.2299
308.2608
308.2683
308.2211
308.257
308.2615
308.2142
308.2273
308.2528
308.2657
308.2185
308.2102
308.1781
308.1941
308.1942
308.2341
308.2515
308.2428
308.2428
308.2222
308.215
308.2062
308.2309
308.226
308.2186
308.1711
308.196
308.2099
308.2346
308.1872
308.2141
308.1822
308.1592
308.1593
308.1981
308.1982
308.1753
308.2379
308.2553
308.208
308.2081
308.2466
308.2467
308.1993
308.2261
308.2189
308.1713
308.1961
308.2101
308.2348
308.1873
308.1093
308.051
308.0933
308.067
308.1571
308.1938
308.185
308.1659
308.1213
308.088
308.0791
308.1302
308.1495
308.1612
308.0947
308.1382
308.1336
308.1771
308.1106
308.1135
308.051
308.0591
308.0313
308.0976
308.067
308.075
308.1615
308.1978
308.1501
308.1314
308.1891
308.1702
308.1226
308.1254
308.0878
308.0433
308.0958
308.079
308.1342
308.087
308.1763
308.1997
308.1721
308.2039
308.1439
308.1046
308.1033
308.1452
308.1789
308.2077
308.2065
308.1802
308.1458
308.0974
308.1038
308.067
308.1416
308.1017
308.108
308.1807
308.2037
308.138
308.1692
308.1766
308.2079
308.1422
308.1484
308.1055
308.0696
308.1119
308.1043
308.1497
308.1106
308.1833
308.2117
308.1717
308.146
308.2105
308.1845
308.1448
308.2531
308.2578
308.249
308.2619
308.2437
308.2289
308.2276
308.2449
308.2557
308.2657
308.2645
308.2569
308.2449
308.2247
308.2021
308.1902
308.2407
308.2289
308.2063
308.2569
308.2615
308.2142
308.2272
308.2527
308.2657
308.2184
308.2474
308.2327
308.1928
308.2101
308.2314
308.2487
308.2089
308.2595
308.2695
308.2298
308.2222
308.2683
308.2607
308.221
308.275
308.272
308.2708
308.2762
308.275
308.272
308.2708
308.2763
308.2776
308.2801
308.2788
308.2788
308.2762
308.2678
308.2336
308.2336
308.272
308.272
308.2378
308.2788
308.2758
308.2362
308.2417
308.2746
308.28
308.2404
308.2788
308.2757
308.2362
308.2417
308.2745
308.28
308.2404
308.2814
308.2838
308.2443
308.2443
308.2826
308.2826
308.243
308.2724
308.2639
308.2681
308.2681
308.2776
308.28
308.2788
308.2788
308.2749
308.272
308.2707
308.2762
308.2787
308.2758
308.2362
308.2417
308.2745
308.28
308.2404
308.2761
308.2677
308.2335
308.2336
308.2719
308.2719
308.2378
308.2813
308.2838
308.2443
308.2442
308.2825
308.2825
308.243
308.2787
308.2757
308.2362
308.2416
308.2745
308.2799
308.2404
308.2413
308.2212
308.2371
308.2254
308.2558
308.2658
308.2645
308.2571
308.2439
308.2292
308.228
308.2452
308.2571
308.2616
308.2143
308.2273
308.2529
308.2658
308.2186
308.2452
308.2251
308.2024
308.1906
308.241
308.2293
308.2066
308.2596
308.2696
308.2299
308.2224
308.2683
308.2609
308.2212
308.2478
308.2331
308.1932
308.2104
308.2319
308.249
308.2092
308.1407
308.0943
308.1365
308.0986
308.1791
308.2081
308.2068
308.1803
308.1434
308.1026
308.1013
308.1446
308.1807
308.204
308.1376
308.1694
308.1764
308.2082
308.1419
308.1448
308.0942
308.1021
308.0628
308.1405
308.0985
308.1064
308.1833
308.212
308.172
308.1457
308.2108
308.1845
308.1445
308.1474
308.1024
308.0655
308.1102
308.1011
308.1486
308.109
308.1789
308.2077
308.1802
308.2065
308.1413
308.0964
308.1007
308.137
308.1763
308.1997
308.2039
308.1721
308.1484
308.1055
308.1119
308.0696
308.1497
308.1043
308.1106
308.1833
308.2117
308.146
308.1717
308.1845
308.2104
308.1448
308.1458
308.0974
308.067
308.1038
308.1016
308.1416
308.108
308.1807
308.2037
308.1691
308.138
308.2079
308.1765
308.1422
308.2557
308.2657
308.2569
308.2645
308.2411
308.2208
308.225
308.2369
308.2531
308.2577
308.2619
308.2489
308.2474
308.2327
308.2101
308.1928
308.2487
308.2314
308.2088
308.2594
308.2695
308.2222
308.2298
308.2607
308.2682
308.2209
308.2449
308.2247
308.1902
308.2021
308.2289
308.2407
308.2063
308.2569
308.2615
308.2272
308.2141
308.2657
308.2527
308.2183
308.2776
308.2801
308.2788
308.2788
308.2724
308.264
308.2682
308.2682
308.275
308.272
308.2762
308.2708
308.2787
308.2757
308.2417
308.2361
308.28
308.2745
308.2404
308.2813
308.2838
308.2443
308.2443
308.2826
308.2826
308.243
308.2762
308.2677
308.2335
308.2336
308.2719
308.272
308.2378
308.2787
308.2758
308.2416
308.2362
308.28
308.2745
308.2404
308.2749
308.272
308.2762
308.2707
308.2749
308.272
308.2762
308.2707
308.2723
308.2639
308.2681
308.2681
308.2813
308.2838
308.2442
308.2442
308.2825
308.2825
308.243
308.2787
308.2757
308.2416
308.2361
308.2799
308.2745
308.2404
308.2787
308.2757
308.2416
308.2361
308.2799
308.2745
308.2404
308.2761
308.2677
308.2335
308.2335
308.2719
308.2719
308.2378
308.2439
308.2292
308.2452
308.228
308.2532
308.2577
308.2619
308.249
308.2413
308.2211
308.2254
308.2371
308.2596
308.2696
308.2224
308.2299
308.2609
308.2683
308.2211
308.2478
308.2331
308.2104
308.1931
308.249
308.2318
308.2092
308.257
308.2615
308.2273
308.2143
308.2657
308.2528
308.2185
308.2452
308.225
308.1905
308.2023
308.2292
308.2409
308.2066
308.1434
308.1026
308.1446
308.1013
308.1764
308.1999
308.2042
308.1721
308.1407
308.0942
308.0986
308.1364
308.1832
308.212
308.1457
308.172
308.1845
308.2108
308.1445
308.1473
308.1024
308.1102
308.0654
308.1486
308.1011
308.109
308.1806
308.2039
308.1693
308.1376
308.2082
308.1764
308.1418
308.1447
308.0941
308.0627
308.102
308.0984
308.1404
308.1063
308.1572
308.1935
308.1659
308.1848
308.1101
308.0534
308.0693
308.0942
308.1452
308.1569
308.1728
308.1293
308.1267
308.0911
308.0976
308.0477
308.1354
308.0823
308.0888
308.1616
308.1975
308.1318
308.15
308.1703
308.1888
308.1231
308.1148
308.0546
308.0358
308.0612
308.0704
308.0991
308.077
308.1498
308.1611
308.1381
308.0954
308.177
308.134
308.1112
308.234
308.2515
308.2427
308.2428
308.21
308.178
308.194
308.194
308.222
308.2147
308.2308
308.2059
308.2258
308.2185
308.1958
308.171
308.2345
308.2098
308.1871
308.2378
308.2553
308.2079
308.2079
308.2465
308.2465
308.1991
308.2139
308.182
308.1591
308.159
308.1979
308.1979
308.1751
308.2258
308.2186
308.1959
308.171
308.2346
308.2098
308.1871
308.2558
308.2658
308.2646
308.257
308.2412
308.2209
308.237
308.2251
308.2438
308.2289
308.245
308.2277
308.257
308.2615
308.2273
308.2142
308.2657
308.2528
308.2185
308.2596
308.2695
308.2299
308.2223
308.2683
308.2608
308.2211
308.245
308.2248
308.2022
308.1903
308.2408
308.229
308.2064
308.2476
308.2327
308.2102
308.1929
308.2488
308.2315
308.209
308.2531
308.2577
308.2619
308.2489
308.2437
308.2289
308.245
308.2276
308.2411
308.2207
308.2369
308.225
308.2595
308.2695
308.2298
308.2223
308.2683
308.2607
308.221
308.2569
308.2615
308.2272
308.2141
308.2657
308.2527
308.2184
308.2475
308.2327
308.2102
308.1927
308.2488
308.2314
308.2089
308.2449
308.2246
308.2021
308.1901
308.2407
308.2288
308.2063
308.2221
308.2149
308.2309
308.2061
308.222
308.2145
308.2307
308.2058
308.2101
308.178
308.1941
308.1939
308.2378
308.2553
308.208
308.2079
308.2466
308.2465
308.1992
308.226
308.2188
308.196
308.1712
308.2347
308.21
308.1872
308.2258
308.2184
308.1958
308.171
308.2345
308.2098
308.1871
308.214
308.182
308.1592
308.159
308.198
308.1979
308.1752
308.1212
308.0879
308.1301
308.0789
308.145
308.1568
308.1729
308.1289
308.1091
308.0508
308.0668
308.0931
308.1613
308.1977
308.1313
308.15
308.1701
308.1889
308.1225
308.1253
308.0877
308.0957
308.0431
308.1341
308.0788
308.0869
308.1494
308.161
308.138
308.0945
308.177
308.1334
308.1105
308.1133
308.0508
308.0311
308.0589
308.0668
308.0974
308.0749
308.0808
308.1357
308.1083
308.1079
308.0119
307.9408
307.9739
307.9726
308.0455
308.0302
308.0722
308.004
308.0517
308.034
308.0405
307.9732
308.0784
308.0079
308.014
308.086
308.1401
308.0745
308.074
308.1132
308.1127
308.0476
308.0173
307.9446
307.9421
307.9401
307.9766
307.9748
307.98
308.0507
308.0308
308.0389
307.9701
308.077
308.0051
308.0128
308.1566
308.1934
308.1846
308.1654
308.1088
308.0508
308.093
308.0667
308.1208
308.0875
308.1296
308.0787
308.1491
308.1609
308.1379
308.0946
308.1768
308.1333
308.1104
308.161
308.1974
308.1498
308.1311
308.1887
308.1698
308.1223
308.1132
308.0512
308.0593
308.0318
308.0975
308.067
308.0751
308.1251
308.0878
308.0957
308.0438
308.1338
308.0789
308.087
308.1785
308.2076
308.2064
308.1797
308.1401
308.0938
308.1358
308.0981
308.1427
308.102
308.1439
308.1008
308.1802
308.2036
308.169
308.1373
308.2078
308.176
308.1415
308.1828
308.2116
308.1716
308.1453
308.2104
308.1839
308.1441
308.1443
308.0941
308.102
308.0632
308.1401
308.0983
308.1062
308.1469
308.1021
308.11
308.0658
308.1481
308.1009
308.1088
308.1757
308.1994
308.2036
308.1714
308.1425
308.1019
308.1439
308.1006
308.1399
308.0935
308.1356
308.0979
308.1826
308.2115
308.1715
308.1452
308.2102
308.1839
308.144
308.18
308.2034
308.1688
308.1371
308.2076
308.1757
308.1413
308.1467
308.1021
308.11
308.0656
308.148
308.1008
308.1087
308.1441
308.0938
308.1017
308.0629
308.1398
308.0981
308.106
308.1445
308.1566
308.1726
308.1286
308.1205
308.0872
308.1293
308.0784
308.1086
308.0505
308.0927
308.0664
308.1608
308.1972
308.1497
308.1308
308.1885
308.1695
308.1221
308.149
308.1608
308.1378
308.0944
308.1767
308.1332
308.1102
308.1248
308.0874
308.0955
308.0435
308.1336
308.0786
308.0867
308.113
308.0509
308.059
308.0315
308.0972
308.0667
308.0748
308.0447
308.0298
308.072
308.0029
308.0446
308.0296
308.0718
308.0029
308.01
307.9371
307.9704
307.9705
308.0851
308.1399
308.0735
308.0735
308.1124
308.1123
308.0464
308.0496
308.03
308.0381
307.9679
308.0765
308.0036
308.0113
308.0496
308.0302
308.0383
307.9686
308.0765
308.0039
308.0115
308.0149
307.9401
307.9367
307.9371
307.9721
307.9723
307.9771
307.8994
307.9533
307.9273
307.9023
307.9549
307.9284
307.9855
307.9861
307.9592
307.9736
308.0107
308.0018
308.0064
308.0498
308.0224
308.0432
308.0618
308.0344
307.9958
308.0251
308.0239
308.0496
308.0813
308.0538
308.0576
308.0839
308.0564
307.9929
308.0167
308.021
308.0576
308.0838
308.0563
308.0493
308.0811
308.0536
307.9613
307.9736
307.9896
308.043
308.0617
308.0342
308.0062
308.0496
308.0222
307.8665
307.8657
307.8937
307.9849
307.9848
307.9578
307.8965
307.952
307.9253
308.0071
308.05
308.0231
307.9772
308.0124
308.0036
308.062
308.0438
308.0351
308.0834
308.1086
308.0997
308.0834
308.1085
308.0996
308.1208
308.1208
308.1119
308.1056
308.1232
308.1219
308.1273
308.1405
308.1316
308.1354
308.1432
308.1342
308.1028
308.1149
308.1192
308.1354
308.1431
308.1341
308.1272
308.1404
308.1315
308.0712
308.0713
308.0875
308.1208
308.1209
308.1119
308.0835
308.1087
308.0998
307.9731
307.96
307.9891
308.0619
308.0431
308.0342
307.9721
308.01
308.0012
308.0501
308.0813
308.0544
307.9993
308.0268
308.0256
308.084
308.0582
308.057
308.1271
308.1404
308.1314
308.1054
308.123
308.1217
308.1431
308.1353
308.134
308.1496
308.1551
308.1539
308.1495
308.1551
308.1539
308.1578
308.1578
308.1565
308.1468
308.1468
308.1512
308.1577
308.1577
308.1565
308.1495
308.1551
308.1538
308.1151
308.1031
308.1194
308.1431
308.1354
308.1342
308.1057
308.1232
308.122
308.0164
307.9917
308.0207
308.084
308.0576
308.0564
307.9944
308.0246
308.0234
308.0582
308.0839
308.057
307.9966
308.0187
308.0229
308.0813
308.0501
308.0543
308.1353
308.143
308.134
308.1028
308.1148
308.1191
308.1404
308.1271
308.1314
308.1578
308.1578
308.1565
308.1469
308.1469
308.1512
308.1551
308.1495
308.1539
308.155
308.1495
308.1538
308.1551
308.1495
308.1538
308.1468
308.1468
308.1511
308.1232
308.1057
308.122
308.1404
308.1272
308.1315
308.103
308.115
308.1193
308.0246
307.9944
308.0233
308.0814
308.0494
308.0537
307.9917
308.0163
308.0207
308.0438
308.0619
308.035
307.9652
307.9757
307.9916
308.0499
308.007
308.023
308.1207
308.1208
308.1118
308.0712
308.0711
308.0874
308.1085
308.0833
308.0996
308.1431
308.1354
308.1341
308.1149
308.1028
308.1192
308.1231
308.1054
308.1218
308.1404
308.1271
308.1314
308.123
308.1053
308.1217
308.1148
308.1027
308.1191
308.1086
308.0834
308.0997
308.1084
308.0832
308.0996
308.0712
308.0711
308.0874
308.0099
307.972
308.001
308.0496
308.0058
308.022
307.9598
307.9728
307.9889
307.9859
307.9853
307.9589
307.8713
307.8693
307.8965
307.9529
307.8989
307.9269
308.0617
308.0429
308.0341
307.9736
307.9612
307.9895
308.0103
307.9732
308.0015
308.0837
308.0574
308.0562
308.0167
307.9927
308.0209
308.0247
307.9953
308.0235
308.0809
308.049
308.0533
308.0247
307.9952
308.0234
308.0164
307.9924
308.0207
308.0494
308.0058
308.0219
308.01
307.9729
308.0012
307.9732
307.9608
307.9892
307.9517
307.8961
307.9249
307.9522
307.8973
307.9253
307.8652
307.866
307.8932
)
;

boundaryField
{
    solid_to_air
    {
        type            compressible::turbulentTemperatureRadCoupledMixed;
        refValue        nonuniform List<scalar> 
1536
(
300.7647
300.7475
300.7538
300.7565
300.752
300.7465
300.7376
300.6778
300.6866
300.6936
300.6833
300.6717
300.745
300.6883
300.7159
300.7307
300.7106
300.6788
300.7477
300.6942
300.7286
300.7465
300.7227
300.6837
300.7431
300.6846
300.7079
300.721
300.7032
300.6759
300.7376
300.678
300.6815
300.6863
300.679
300.6732
301.1827
301.1756
300.4753
300.4874
300.5058
300.5006
300.5289
300.5039
300.5331
300.4981
300.5235
300.4837
300.4912
301.1764
300.4869
300.5029
300.7389
300.7763
300.7825
300.7679
300.7164
300.4886
300.4998
300.5258
300.7761
300.8193
300.8268
300.8099
300.7509
300.5021
300.503
300.5301
300.7824
300.8267
300.8343
300.8171
300.7568
300.5054
300.4973
300.5205
300.7676
300.8094
300.8166
300.8005
300.7434
300.4995
300.4832
300.4884
300.7161
300.7504
300.7562
300.743
300.6955
300.4846
301.1826
300.4874
300.5006
300.5039
300.4981
300.4837
301.505
300.5445
300.5469
300.5562
300.5585
300.5615
300.5614
300.5585
300.5562
300.5468
300.544
301.4829
301.4898
300.5417
300.7482
300.7377
300.681
300.752
300.678
300.6792
300.7565
300.6816
300.6862
300.7538
300.6864
300.6819
300.7465
300.679
300.6732
300.7764
300.6732
300.7584
301.5011
300.5479
300.5443
300.5536
300.6795
300.7431
300.6826
300.6829
300.6846
300.7013
300.6933
300.7081
300.7208
300.6874
300.7211
300.7105
300.6732
300.7032
300.6819
300.7577
300.676
300.7621
300.5505
300.56
300.5559
300.5588
300.685
300.7477
300.689
300.7079
300.6942
300.7192
300.7302
300.7286
300.7459
300.7187
300.7465
300.7324
300.6859
300.7227
300.6929
300.7638
300.6838
300.7664
300.5623
300.5653
300.5588
300.5559
300.689
300.7449
300.685
300.719
300.6882
300.708
300.7458
300.7158
300.7302
300.7323
300.7307
300.7188
300.6928
300.7106
300.686
300.7664
300.6788
300.7638
300.5653
300.5623
300.5536
300.5443
300.6825
300.7376
300.6795
300.701
300.6777
300.6829
300.7205
300.6864
300.6933
300.7104
300.6935
300.6874
300.6817
300.6832
300.6732
300.7621
300.6717
300.7577
300.56
300.5505
300.5417
301.4897
300.681
300.7647
300.7482
301.5049
300.5445
300.6792
300.7475
300.752
300.5469
300.5562
300.6862
300.7537
300.7564
300.5585
300.5615
300.6819
300.7565
300.7538
300.5614
300.5585
300.6731
300.7519
300.7465
300.5562
300.5468
300.7584
300.7465
300.7764
300.5479
300.544
301.5011
301.4829
300.4837
300.4911
300.4832
300.4884
300.6952
300.498
300.5236
300.7161
300.7429
300.504
300.5332
300.7504
300.7564
300.5007
300.5289
300.7562
300.7505
300.4876
300.5059
300.743
300.7163
301.1678
300.4754
300.6954
300.4847
300.4944
300.716
300.4973
300.5205
300.7426
300.7679
300.7676
300.8001
300.7828
300.8094
300.8169
300.7764
300.8167
300.8099
300.7392
300.8005
300.7683
300.5092
300.7434
300.4995
300.5272
300.7501
300.503
300.5301
300.7559
300.8095
300.7824
300.8165
300.8271
300.8267
300.8345
300.8198
300.8343
300.8272
300.7767
300.8171
300.7831
300.5326
300.7568
300.5054
300.5369
300.7559
300.4998
300.5258
300.7501
300.8166
300.776
300.8094
300.8346
300.8193
300.827
300.8272
300.8268
300.8197
300.7831
300.8098
300.7767
300.5369
300.7509
300.5021
300.5326
300.7426
300.4869
300.5029
300.716
300.8001
300.7389
300.7679
300.8169
300.7762
300.7828
300.8098
300.7825
300.7764
300.7682
300.7679
300.7392
300.5272
300.7164
300.4886
300.5092
300.6951
301.1755
300.4753
300.4837
300.4911
300.7429
300.5058
300.498
300.5236
300.7564
300.5288
300.5039
300.5332
300.7505
300.5331
300.5007
300.5288
300.7163
300.5235
300.4876
300.5058
300.4944
300.4912
301.1764
301.1678
300.4754
300.7361
300.7791
300.7689
301.3796
301.3684
300.7593
300.7507
300.7045
300.7486
300.7053
300.6467
300.6489
300.7076
300.755
300.7067
300.6551
300.6562
300.7084
300.7561
300.7089
300.6575
300.6571
300.7035
300.7501
300.7049
300.6534
300.6514
300.7065
300.7531
300.7025
300.6457
300.6586
301.3791
300.7628
300.7075
300.7076
300.7391
300.6413
300.6435
300.6802
300.6778
300.6788
300.6966
300.6896
300.6927
300.7006
300.6926
300.7018
300.6837
300.6793
300.6889
300.6732
300.674
300.6718
300.6526
300.6547
300.7117
300.7107
300.7462
300.65
300.6511
300.6969
300.6934
300.6911
300.7289
300.7223
300.7219
300.7363
300.729
300.7382
300.7071
300.7022
300.7163
300.6788
300.6772
300.6811
300.6608
300.662
300.7125
300.7129
300.7472
300.6523
300.652
300.6996
300.7011
300.6932
300.7338
300.7363
300.7264
300.7417
300.7445
300.7438
300.7109
300.7128
300.7206
300.68
300.6806
300.6829
300.6631
300.6628
300.7083
300.7094
300.7412
300.6482
300.6461
300.6842
300.6886
300.6814
300.705
300.7136
300.7002
300.71
300.7195
300.7115
300.6896
300.6958
300.696
300.6739
300.6753
300.6735
300.6592
300.6572
300.7127
300.7085
300.7445
300.6405
300.654
300.6803
300.6768
300.682
300.6837
300.6835
300.6824
300.685
300.6856
300.6855
300.6787
300.6763
300.6804
300.6817
300.6763
300.6783
300.652
300.6658
301.3795
300.7593
300.6467
300.6489
300.6551
300.6562
300.6574
300.6571
300.6534
300.6514
300.6457
300.6586
300.7213
300.5084
300.5693
300.5056
300.5669
300.7336
300.5129
300.4915
300.7249
300.7537
300.5309
300.5023
300.7515
300.7556
300.5326
300.5035
300.756
300.7411
300.5196
300.4953
300.7456
300.6948
300.4867
300.4907
300.7086
300.7347
300.726
300.5099
300.4908
300.7634
300.7509
300.7508
300.7932
300.7793
300.7899
300.796
300.7819
300.7966
300.7748
300.7617
300.7815
300.7064
300.6963
300.7277
300.7546
300.7525
300.5278
300.5015
300.7929
300.7898
300.7789
300.8262
300.8228
300.8226
300.8297
300.8262
300.8301
300.8058
300.8026
300.8132
300.7301
300.7277
300.7536
300.7566
300.757
300.5296
300.5026
300.7957
300.7964
300.7817
300.8295
300.8302
300.8259
300.8331
300.8337
300.8335
300.8089
300.8097
300.8163
300.7325
300.733
300.7562
300.7421
300.7466
300.5166
300.4944
300.7745
300.7811
300.7615
300.8056
300.8129
300.8022
300.8087
300.816
300.8092
300.7865
300.7934
300.7934
300.7155
300.7207
300.7375
300.6963
300.7098
300.4845
300.4907
300.7064
300.7273
300.6964
300.7301
300.7532
300.7276
300.7322
300.7556
300.7327
300.7154
300.7372
300.7206
300.6612
300.6769
300.6771
300.6462
300.6605
301.5829
300.6866
300.7412
300.5805
300.5588
300.5988
300.6533
300.6513
300.5815
300.5502
300.5839
300.5888
300.5536
300.5867
300.6574
300.657
300.5907
300.56
300.592
300.5932
300.561
300.5928
300.6551
300.6563
300.5932
300.561
300.5928
300.5907
300.56
300.5919
300.6466
300.6488
300.5888
300.5536
300.5866
300.5812
300.5502
300.5837
301.3653
300.7529
300.5797
300.5566
300.5959
301.5602
300.6779
300.7307
300.6405
300.654
301.5652
300.6789
300.7306
300.5762
300.555
300.5931
300.713
300.7555
300.7073
300.7127
300.7445
300.7085
300.6911
300.6852
300.6872
300.7048
300.7503
300.7056
300.6802
300.682
300.6768
300.6802
300.681
300.6776
300.7084
300.756
300.7089
300.6837
300.6825
300.6836
300.6848
300.6854
300.6853
300.7075
300.755
300.7064
300.685
300.6855
300.6857
300.6839
300.6824
300.6841
300.7022
300.748
300.7019
300.6787
300.6804
300.6763
300.6774
300.6774
300.674
300.7302
300.777
300.7887
300.6817
300.6783
300.6763
300.7047
300.7656
300.6992
300.652
300.6658
301.5817
300.6873
300.7437
300.5857
300.5615
300.6033
300.6482
300.6461
300.5776
300.5477
300.5801
300.5851
300.551
300.583
300.6846
300.6855
300.6793
300.7083
300.7412
300.7094
300.6852
300.6806
300.6864
300.6836
300.68
300.6879
300.6842
300.6814
300.6886
300.6891
300.6946
300.6948
300.6996
300.692
300.7014
300.7051
300.7004
300.7136
300.709
300.7113
300.7183
300.6978
300.6905
300.694
300.7101
300.7116
300.7195
300.7069
300.7024
300.7159
300.6785
300.6755
300.6747
300.6896
300.696
300.6958
300.6832
300.6781
300.6883
300.6972
300.6976
300.7587
300.674
300.6736
300.6753
300.698
300.7605
300.6991
300.6592
300.6572
300.5867
300.5539
300.5892
300.5942
300.5573
300.592
300.6523
300.652
300.5871
300.5574
300.5883
300.5895
300.5584
300.5892
300.6891
300.6879
300.6868
300.7125
300.7472
300.7129
300.6901
300.6883
300.6906
300.7049
300.7005
300.7131
300.6996
300.6932
300.701
300.7083
300.7173
300.7101
300.7345
300.7274
300.7375
300.7339
300.7265
300.7363
300.7398
300.7432
300.7425
300.7317
300.7248
300.7251
300.7417
300.7438
300.7444
300.7369
300.73
300.7396
300.6975
300.6935
300.689
300.7108
300.7206
300.7127
300.7006
300.6916
300.7023
300.7017
300.7006
300.765
300.68
300.6829
300.6806
300.7027
300.766
300.7031
300.6631
300.6628
300.596
300.5638
300.5973
300.5985
300.5649
300.5982
300.6499
300.6511
300.5896
300.5584
300.5892
300.5871
300.5574
300.5883
300.6901
300.6906
300.6883
300.7116
300.7462
300.7107
300.6891
300.6868
300.6879
300.7082
300.71
300.717
300.6968
300.691
300.6932
300.7049
300.7133
300.7005
300.7397
300.7425
300.743
300.7288
300.7219
300.7221
300.7345
300.7377
300.7274
300.7368
300.7395
300.7299