/*--------------------------------*- C++ -*----------------------------------*\
| =========                 |                                                 |
| \\      /  F ield         | OpenFOAM: The Open Source CFD Toolbox           |
|  \\    /   O peration     | Version:  2506                                  |
|   \\  /    A nd           | Website:  www.openfoam.com                      |
|    \\/     M anipulation  |                                                 |
\*---------------------------------------------------------------------------*/
FoamFile
{
    version     2.0;
    format      ascii;
    arch        "LSB;label=32;scalar=64";
    class       volScalarField;
    location    "30/airRegion";
    object      alphat;
}
// * * * * * * * * * * * * * * * * * * * * * * * * * * * * * * * * * * * * * //

dimensions      [1 -1 -1 0 0 0 0];

internalField   nonuniform List<scalar> 
260661
(
0.09815274
0.09637112
0.09671813
0.09686792
0.09686838
0.09683015
0.09678491
0.09673895
0.09669414
0.09665123
0.09661057
0.09657232
0.09653652
0.09650315
0.0964721
0.09644329
0.09641657
0.09639181
0.0963689
0.0963477
0.09632811
0.09631003
0.09629337
0.09627806
0.09626403
0.09625124
0.09623963
0.09622918
0.09621983
0.09621157
0.09620435
0.09619813
0.09619289
0.09618854
0.09618503
0.09618225
0.09618005
0.09617821
0.09617639
0.09617401
0.09616998
0.09616186
0.09614355
0.09609774
0.09597028
0.09557661
0.09423126
0.0891402
0.06885531
0.01456744
0.09637112
0.09664797
0.09683879
0.09686625
0.09682383
0.09676054
0.0966915
0.09662177
0.09655354
0.09648792
0.09642551
0.09636663
0.09631139
0.09625978
0.09621171
0.09616702
0.09612554
0.09608708
0.09605146
0.09601849
0.095988
0.09595986
0.09593392
0.09591007
0.09588822
0.09586828
0.09585018
0.09583385
0.09581924
0.09580628
0.09579492
0.09578509
0.09577672
0.09576969
0.0957639
0.09575915
0.09575523
0.09575178
0.09574832
0.09574402
0.09573745
0.09572563
0.09570154
0.09564626
0.09550303
0.09508513
0.09372242
0.08872926
0.06905344
0.01416989
0.09671816
0.09683882
0.09686254
0.09680238
0.09670807
0.09659846
0.09648337
0.09636801
0.09625527
0.09614685
0.09604374
0.09594644
0.09585515
0.09576986
0.09569043
0.09561662
0.09554812
0.09548465
0.09542587
0.0953715
0.09532125
0.09527488
0.09523216
0.09519291
0.09515695
0.09512414
0.09509436
0.0950675
0.09504344
0.09502207
0.0950033
0.09498698
0.094973
0.09496115
0.09495124
0.09494297
0.09493594
0.09492963
0.09492325
0.09491562
0.09490471
0.09488666
0.09485292
0.0947819
0.09461215
0.09415065
0.09273314
0.0877885
0.06893521
0.01406005
0.09686807
0.09686645
0.09680259
0.09668106
0.09652927
0.09636059
0.09618512
0.09600944
0.09583766
0.09567234
0.09551501
0.09536649
0.09522712
0.09509691
0.09497565
0.09486298
0.09475848
0.09466166
0.09457206
0.09448921
0.09441267
0.09434208
0.09427709
0.09421739
0.09416275
0.09411292
0.09406771
0.09402694
0.09399042
0.093958
0.09392947
0.09390464
0.09388329
0.09386513
0.09384984
0.09383697
0.09382595
0.09381601
0.09380607
0.09379448
0.0937786
0.09375359
0.09370925
0.09362119
0.09342342
0.09291851
0.09145668
0.08660566
0.06862177
0.01398943
0.09686879
0.09682436
0.09670878
0.0965299
0.09631399
0.09607639
0.09582965
0.09558244
0.09534043
0.09510727
0.0948852
0.09467544
0.09447855
0.09429458
0.09412327
0.09396413
0.09381655
0.09367988
0.09355343
0.09343656
0.09332866
0.09322919
0.09313765
0.09305364
0.09297679
0.09290676
0.09284329
0.09278608
0.09273488
0.09268943
0.09264945
0.09261463
0.09258467
0.09255915
0.09253762
0.09251948
0.09250397
0.09249008
0.09247642
0.09246096
0.09244047
0.0924092
0.09235543
0.09225196
0.09202781
0.0914794
0.08996641
0.08518853
0.06801619
0.01395217
0.09683098
0.09676168
0.09660011
0.09636248
0.09607788
0.09576534
0.09544059
0.09511472
0.09479521
0.09448698
0.0941931
0.09391533
0.09365449
0.09341071
0.09318368
0.09297281
0.09277729
0.09259626
0.09242883
0.09227412
0.09213134
0.09199977
0.09187877
0.0917678
0.09166637
0.09157405
0.09149045
0.09141519
0.0913479
0.09128823
0.09123577
0.09119013
0.09115086
0.09111743
0.09108926
0.0910656
0.09104551
0.09102778
0.09101079
0.09099219
0.09096832
0.09093275
0.09087239
0.09075683
0.09050694
0.08989844
0.08824494
0.08322598
0.06635749
0.01399963
0.09678639
0.0966936
0.09648651
0.09618911
0.09583378
0.09544357
0.09503753
0.09462936
0.09422847
0.09384117
0.0934715
0.09312182
0.09279327
0.09248612
0.09220005
0.09193431
0.09168795
0.09145987
0.09124895
0.09105411
0.09087434
0.09070877
0.09055659
0.09041712
0.09028977
0.09017399
0.09006928
0.08997515
0.08989112
0.0898167
0.08975138
0.08969461
0.08964583
0.0896044
0.08956959
0.08954052
0.08951612
0.08949504
0.08947549
0.08945495
0.08942954
0.08939244
0.08932951
0.08920681
0.08893197
0.08822859
0.08619935
0.0798171
0.06068007
0.01408255
0.09674135
0.09662524
0.09637332
0.09601656
0.09559065
0.09512257
0.09463469
0.09414333
0.0936599
0.09319221
0.09274532
0.09232224
0.09192451
0.09155256
0.09120606
0.09088416
0.09058572
0.09030942
0.09005393
0.08981796
0.08960031
0.08939991
0.08921581
0.08904723
0.08889346
0.08875385
0.08862779
0.08851466
0.08841384
0.08832472
0.08824666
0.08817894
0.08812089
0.08807172
0.0880306
0.08799654
0.08796836
0.08794465
0.08792353
0.08790247
0.08787757
0.08784197
0.08778116
0.08765898
0.08737113
0.08657456
0.08395181
0.07413456
0.04640465
0.02216381
0.09669779
0.09655888
0.09626356
0.09584914
0.09535445
0.0948102
0.09424197
0.09366866
0.09310372
0.09255643
0.09203292
0.09153694
0.09107041
0.09063395
0.09022725
0.08984936
0.08949897
0.08917456
0.08887458
0.08859751
0.088342
0.08810681
0.08789088
0.08769332
0.08751332
0.08735015
0.08720309
0.08707137
0.08695428
0.08685098
0.08676072
0.08668261
0.08661584
0.08655951
0.08651265
0.08647421
0.08644296
0.08641744
0.08639582
0.08637563
0.08635316
0.08632182
0.08626765
0.08615609
0.08589189
0.0851951
0.08319638
0.07714625
0.05968926
0.01416963
0.09665649
0.09649569
0.09615905
0.09568957
0.09512906
0.09451171
0.09386613
0.09321372
0.09256989
0.09194542
0.09134753
0.09078065
0.09024714
0.08974783
0.08928243
0.0888499
0.08844877
0.08807733
0.08773381
0.0874165
0.08712388
0.08685459
0.0866075
0.08638163
0.08617612
0.08599017
0.08582293
0.08567352
0.08554105
0.08542448
0.08532291
0.08523526
0.0851606
0.08509787
0.08504604
0.08500396
0.0849704
0.08494392
0.08492279
0.08490471
0.08488627
0.08486133
0.08481658
0.0847183
0.08447273
0.08380356
0.08184715
0.07582391
0.05835125
0.01416939
0.09661785
0.09643635
0.09606088
0.09553957
0.09491697
0.0942305
0.09351163
0.09278409
0.0920652
0.09136718
0.09069828
0.09006366
0.0894661
0.08890662
0.08838496
0.08790001
0.08745016
0.08703349
0.08664804
0.08629192
0.08596351
0.08566133
0.0853842
0.08513112
0.08490121
0.08469359
0.08450733
0.08434142
0.08419477
0.08406614
0.0839544
0.08385828
0.08377672
0.08370853
0.08365256
0.08360764
0.08357255
0.08354592
0.08352613
0.08351115
0.08349791
0.08348078
0.08344705
0.08336289
0.08312904
0.0824237
0.08003272
0.07102145
0.04548044
0.02279123
0.09658207
0.09638123
0.09596967
0.09540011
0.09471965
0.09396866
0.09318123
0.09238331
0.09159399
0.09082686
0.09009117
0.08939276
0.08873483
0.08811858
0.0875438
0.0870093
0.08651331
0.08605373
0.08562843
0.08523539
0.08487284
0.08453928
0.08423353
0.08395462
0.08370167
0.08347378
0.08326994
0.08308898
0.08292955
0.08279023
0.08266962
0.08256628
0.08247891
0.08240624
0.08234704
0.0823001
0.08226423
0.08223815
0.08222042
0.08220925
0.08220196
0.08219344
0.08217176
0.08210507
0.08190328
0.08130227
0.07948917
0.07391824
0.05788496
0.0141342
0.09654923
0.09633052
0.09588573
0.09527171
0.09453788
0.0937273
0.09287648
0.0920134
0.09115878
0.09032752
0.0895298
0.0887721
0.08805799
0.08738886
0.08676454
0.08618376
0.0856446
0.08514481
0.08468208
0.08425425
0.08385949
0.0834963
0.08316355
0.08286034
0.0825859
0.08233932
0.08211949
0.08192504
0.0817544
0.08160589
0.08147782
0.08136852
0.08127648
0.08120036
0.08113884
0.08109066
0.08105466
0.08102974
0.08101462
0.08100775
0.08100688
0.0810074
0.08099804
0.08094783
0.08076775
0.0801934
0.0783993
0.07275376
0.05644892
0.01412818
0.09651934
0.09628427
0.09580914
0.09515453
0.09437195
0.09350689
0.09259804
0.09167525
0.09076076
0.08987065
0.08901596
0.08820375
0.08743796
0.08672016
0.08605017
0.08542666
0.08484756
0.08431046
0.08381291
0.08335263
0.08292777
0.08253685
0.08217886
0.08185304
0.08155875
0.08129513
0.08106099
0.08085473
0.0806745
0.08051831
0.08038416
0.08027018
0.08017463
0.08009604
0.08003302
0.0799843
0.07994881
0.07992554
0.07991342
0.07991119
0.07991698
0.07992669
0.07992981
0.07989593
0.079732
0.07913125
0.07691988
0.06825411
0.04360193
0.02335074
0.09649236
0.09624243
0.09573987
0.09504853
0.09422181
0.09330739
0.09234595
0.09136901
0.09040019
0.08945663
0.08855017
0.0876884
0.08687559
0.08611345
0.08540181
0.08473927
0.0841236
0.08355227
0.08302265
0.08253243
0.08207969
0.08166307
0.0812817
0.08093503
0.08062259
0.08034363
0.08009685
0.07988045
0.07969224
0.07952987
0.07939102
0.07927356
0.07917555
0.07909539
0.07903159
0.07898296
0.07894848
0.07892724
0.07891841
0.078921
0.07893344
0.07895222
0.07896793
0.07895355
0.07883014
0.07836465
0.07683381
0.07189631
0.05694568
0.01400148
0.09646822
0.09620494
0.09567777
0.09495349
0.09408719
0.0931285
0.09211985
0.09109429
0.09007666
0.08908506
0.08813206
0.08722571
0.08637057
0.08556848
0.08481929
0.08412149
0.08347273
0.08287032
0.08231154
0.08179398
0.08131573
0.08087554
0.08047276
0.08010709
0.07977828
0.07948568
0.07922794
0.07900299
0.07880828
0.07864108
0.07849874
0.07837888
0.07827931
0.07819831
0.07813437
0.07808634
0.07805325
0.07803434
0.07802899
0.07803648
0.07805554
0.07808313
0.07811063
0.07811297
0.07801875
0.07762788
0.07637522
0.07256491
0.06031754
0.01391789
0.09644682
0.09617166
0.09562265
0.09486914
0.0939677
0.0929697
0.09191913
0.09085037
0.08978937
0.08875508
0.08776069
0.08681469
0.08592189
0.08508423
0.08430158
0.08357233
0.08289399
0.08226378
0.08167883
0.08113667
0.08063542
0.08017396
0.07975186
0.0793691
0.07902573
0.0787212
0.07845408
0.07822204
0.07802214
0.07785126
0.07770644
0.077585
0.07748459
0.07740336
0.07733977
0.07729268
0.07726123
0.07724486
0.0772431
0.07725551
0.07728114
0.07731722
0.07735519
0.07736858
0.07727889
0.0768545
0.07538051
0.07055055
0.05590189
0.01396113
0.09642807
0.09614248
0.0955743
0.09479513
0.09386287
0.09283038
0.09174303
0.09063636
0.08953729
0.08846552
0.08743479
0.08645398
0.08552811
0.08465921
0.08384713
0.08309024
0.08238589
0.0817312
0.08112319
0.08055932
0.08003776
0.07955752
0.07911837
0.07872058
0.07836448
0.07804968
0.07777463
0.07753674
0.07733275
0.0771591
0.07701252
0.07689009
0.0767893
0.07670819
0.07664524
0.07659929
0.07656963
0.07655586
0.07655772
0.07657505
0.07660722
0.07665168
0.07669968
0.07672196
0.07662554
0.07610655
0.07403268
0.06590077
0.0432977
0.02369264
0.09641187
0.09611724
0.09553249
0.09473114
0.09377222
0.0927099
0.09159073
0.09045127
0.08931926
0.08821508
0.08715292
0.08614201
0.08518755
0.08429166
0.08345419
0.08267343
0.08194668
0.0812709
0.08064303
0.0800605
0.0795215
0.07902513
0.07857137
0.07816076
0.07779384
0.07747035
0.07718869
0.07694598
0.07673864
0.07656281
0.07641493
0.0762918
0.07619084
0.07611001
0.07604777
0.07600303
0.07597518
0.07596395
0.07596936
0.07599153
0.07603014
0.07608305
0.07614183
0.07617711
0.07609577
0.07560765
0.07375796
0.06744791
0.05054656
0.01422607
0.09639814
0.09609582
0.095497
0.09467682
0.09369526
0.09260762
0.09146144
0.09029413
0.08913416
0.08800246
0.08691363
0.08587719
0.0848985
0.08397978
0.08312087
0.08232
0.08157443
0.08088099
0.08023655
0.07963857
0.07908516
0.07857551
0.07810974
0.0776886
0.07731282
0.0769822
0.07669506
0.07644831
0.07623811
0.0760604
0.07591136
0.07578762
0.07568645
0.07560585
0.07554421
0.07550058
0.07547439
0.07546558
0.07547437
0.07550122
0.0755462
0.07560781
0.07567865
0.07573105
0.07567433
0.0752121
0.07324732
0.06543539
0.04354099
0.02377773
0.09638679
0.0960781
0.09546763
0.09463185
0.09363156
0.09252294
0.09135439
0.09016403
0.08898091
0.08782642
0.08671554
0.085658
0.08465933
0.08372182
0.08284533
0.08202807
0.08126725
0.08055958
0.07990195
0.07929176
0.07872708
0.07820713
0.0777321
0.07730285
0.07692015
0.07658385
0.07629221
0.07604203
0.07582928
0.07564973
0.0754994
0.07537486
0.07527331
0.07519269
0.07513143
0.07508864
0.07506388
0.07505723
0.07506912
0.07510035
0.07515137
0.07522138
0.07530424
0.07537553
0.07535698
0.0750131
0.073619
0.06889869
0.05484809
0.01408424
0.09637774
0.09606398
0.09544421
0.09459597
0.09358072
0.09245535
0.09126893
0.09006014
0.08885854
0.08768587
0.08655741
0.08548308
0.08446856
0.08351621
0.08262591
0.08179588
0.08102331
0.08030489
0.07963743
0.07901831
0.07844553
0.07791831
0.07743678
0.07700179
0.07661412
0.07627357
0.07597834
0.07572518
0.07551003
0.07532854
0.07517668
0.07505102
0.07494872
0.07486773
0.07480649
0.07476421
0.07474052
0.07473567
0.07475032
0.07478551
0.07484209
0.07491987
0.0750135
0.07509956
0.07510143
0.07478762
0.07344608
0.06883893
0.0549859
0.01407737
0.09637095
0.09605335
0.09542658
0.09456896
0.09354242
0.09240442
0.09120451
0.08998183
0.08876628
0.08757992
0.08643823
0.08535132
0.08432497
0.08336162
0.08246122
0.081622
0.08084114
0.08011531
0.07944133
0.07881651
0.0782388
0.07770731
0.07722203
0.0767837
0.07639296
0.07604952
0.07575157
0.07549584
0.07527829
0.07509464
0.07494097
0.07481378
0.0747103
0.07462852
0.07456691
0.07452473
0.0745017
0.07449823
0.07451518
0.0745538
0.0746153
0.07469996
0.07480259
0.07489821
0.07490022
0.07452319
0.07271364
0.06529637
0.04413138
0.02367207
0.09636636
0.09604617
0.09541464
0.09455065
0.09351645
0.09236985
0.09116078
0.08992865
0.08870362
0.08750796
0.08635733
0.08526196
0.08422774
0.08325718
0.08235029
0.08150535
0.08071956
0.07998964
0.07931237
0.07868498
0.07810539
0.07757252
0.07708617
0.07664681
0.07625485
0.07590987
0.07561
0.07535209
0.0751322
0.07494627
0.07479043
0.07466135
0.07455629
0.07447328
0.07441091
0.0743684
0.07434561
0.07434304
0.07436174
0.07440312
0.0744687
0.07455908
0.07466905
0.07477217
0.07477661
0.07439075
0.07265472
0.0664803
0.04979613
0.01442596
0.09636396
0.0960424
0.09540835
0.09454098
0.0935027
0.09235154
0.09113758
0.08990042
0.08867036
0.08746978
0.08631447
0.08521474
0.08417657
0.08320254
0.08229274
0.0814455
0.08065807
0.07992729
0.07924986
0.07862295
0.07804442
0.07751294
0.07702805
0.07658987
0.0761985
0.07585329
0.07555238
0.07529274
0.07507069
0.07488239
0.07472419
0.07459291
0.07448594
0.07440137
0.07433783
0.07429461
0.07427161
0.07426944
0.07428926
0.07433266
0.07440141
0.07449648
0.07461276
0.07472241
0.07472397
0.07427027
0.07203695
0.06282752
0.03865158
0.02546027
0.09636374
0.09604203
0.09540772
0.09453999
0.09350127
0.09234959
0.09113508
0.08989736
0.08866676
0.08746572
0.08631003
0.08521009
0.08417194
0.08319822
0.0822891
0.08144299
0.08065722
0.07992865
0.07925405
0.07863048
0.07805568
0.0775281
0.07704695
0.07661195
0.07622282
0.0758787
0.0755777
0.07531699
0.07509317
0.0749027
0.07474219
0.07460862
0.07449961
0.07441328
0.07434833
0.07430408
0.07428047
0.07427818
0.07429844
0.07434293
0.07441359
0.07451168
0.07463244
0.07474848
0.0747592
0.0743193
0.07211003
0.06293122
0.03866019
0.02547782
0.09636571
0.0960451
0.09541279
0.09454772
0.09351219
0.09236408
0.09115338
0.08991959
0.08869297
0.0874959
0.08634417
0.08524816
0.08421396
0.08324428
0.08233935
0.08149767
0.08071665
0.0799932
0.07932409
0.07870636
0.0781376
0.07761604
0.07714052
0.0767104
0.076325
0.07598321
0.07568316
0.07542221
0.07519727
0.07500508
0.07484258
0.07470695
0.07459599
0.07450791
0.07444147
0.07439601
0.0743715
0.07436859
0.0743886
0.07443321
0.07450443
0.07460364
0.0747265
0.07484764
0.07487654
0.07452516
0.07285428
0.06686169
0.05045735
0.01440291
0.09636989
0.09605161
0.09542354
0.09456416
0.09353546
0.09239498
0.09119241
0.08996702
0.08874885
0.08756015
0.08641663
0.08532862
0.08430221
0.08334017
0.08244278
0.08160865
0.08083526
0.08011957
0.07945837
0.0788487
0.078288
0.07777425
0.07730599
0.0768822
0.07650185
0.0761636
0.07586556
0.07560531
0.07538005
0.07518682
0.07502284
0.07488556
0.07477292
0.07468325
0.07461536
0.07456858
0.07454294
0.07453904
0.07455818
0.07460205
0.07467266
0.07477141
0.07489418
0.07501628
0.07504849
0.07469777
0.07291662
0.06574371
0.04535403
0.02273338
0.0963763
0.0960616
0.09544007
0.09458944
0.09357122
0.09244247
0.09125241
0.0900399
0.0888347
0.08765879
0.08652773
0.08545179
0.08443701
0.08348618
0.08259963
0.08177608
0.08101308
0.08030765
0.07965665
0.07905706
0.07850617
0.07800181
0.07754227
0.07712611
0.076752
0.07641843
0.07612355
0.07586507
0.07564042
0.07544699
0.07528225
0.07514392
0.07503003
0.07493905
0.07486986
0.0748218
0.07479486
0.07478966
0.07480738
0.07484965
0.07491847
0.075015
0.07513495
0.0752531
0.07527956
0.07492771
0.07326218
0.06729846
0.05092814
0.01438107
0.09638499
0.09607515
0.0954625
0.09462372
0.09361974
0.09250691
0.09133381
0.09013878
0.08895112
0.08779251
0.08667827
0.08561853
0.08461925
0.08368322
0.08281086
0.08200091
0.08125103
0.08055832
0.07991968
0.07933205
0.07879266
0.07829918
0.0778496
0.07744225
0.07707555
0.07674786
0.07645727
0.07620165
0.0759787
0.07578604
0.07562139
0.07548268
0.07536814
0.07527627
0.07520605
0.07515685
0.07512858
0.0751218
0.0751376
0.07517752
0.07524341
0.07533617
0.075451
0.07556071
0.07556529
0.07512034
0.07290842
0.06373286
0.03930292
0.02526175
0.09639605
0.09609237
0.09549099
0.09466729
0.0936814
0.09258879
0.09143724
0.09026441
0.08909903
0.08796235
0.08686939
0.08583007
0.08485027
0.08393274
0.08307792
0.08228465
0.08155068
0.08087313
0.08024899
0.0796752
0.07914893
0.07866774
0.07822942
0.07783205
0.07747391
0.07715325
0.07686815
0.07661659
0.07639645
0.07620564
0.07604201
0.07590372
0.07578919
0.07569697
0.07562609
0.07557592
0.07554634
0.07553779
0.07555119
0.07558799
0.07564972
0.07573692
0.07584435
0.07594422
0.07593553
0.07547091
0.07321839
0.06391217
0.03916438
0.02523252
0.09640953
0.09611337
0.09552575
0.09472044
0.09375663
0.0926887
0.09156345
0.09041769
0.08927948
0.08816952
0.08710246
0.08608795
0.08513174
0.08423652
0.08340275
0.08262931
0.08191405
0.0812542
0.08064677
0.08008872
0.07957726
0.07910979
0.07868401
0.07829786
0.07794947
0.07763701
0.0773586
0.0771123
0.07689617
0.07670829
0.0765467
0.07640976
0.07629595
0.07620397
0.07613286
0.07608198
0.07605116
0.07604069
0.0760513
0.07608421
0.07614063
0.0762206
0.07631853
0.07640774
0.0763963
0.07599243
0.07424042
0.0680758
0.05121273
0.01441413
0.09642554
0.09613829
0.09556699
0.09478351
0.09384591
0.09280728
0.09171325
0.09059963
0.08949366
0.08841541
0.08737904
0.0863939
0.08546554
0.08459658
0.08378747
0.08303714
0.08234353
0.08170399
0.08111557
0.0805753
0.08008037
0.07962817
0.07921633
0.07884268
0.07850529
0.07820226
0.07793175
0.07769193
0.07748099
0.07729715
0.07713862
0.07700394
0.07689163
0.07680053
0.0767297
0.07667845
0.07664651
0.07663404
0.07664157
0.07667001
0.0767202
0.07679168
0.0768784
0.07695388
0.07692744
0.07650249
0.0746099
0.06717389
0.04607956
0.02261024
0.09644417
0.09616727
0.09561495
0.09485687
0.09394976
0.09294522
0.09188751
0.09081129
0.08974282
0.08870144
0.08770073
0.08674967
0.08585359
0.085015
0.08423433
0.08351055
0.08284167
0.08222516
0.08165818
0.08113782
0.0806613
0.08022602
0.07982961
0.07946985
0.07914474
0.07885241
0.07859108
0.07835899
0.07815444
0.07797576
0.07782136
0.07768981
0.07757984
0.0774903
0.07742026
0.07736899
0.07733611
0.07732165
0.07732589
0.07734937
0.07739254
0.07745432
0.07752799
0.07758691
0.07754344
0.07712417
0.07544325
0.06965538
0.05352484
0.01420058
0.09646552
0.09620044
0.09566986
0.09494085
0.09406867
0.09310318
0.09208708
0.09105369
0.09002817
0.08902898
0.08806908
0.08715701
0.0862978
0.08549383
0.08474551
0.08405186
0.08341096
0.08282036
0.08227736
0.08177918
0.08132308
0.08090653
0.08052715
0.08018273
0.07987131
0.07959104
0.07934016
0.07911703
0.07892007
0.07874768
0.07859845
0.07847101
0.07836419
0.07827689
0.07820816
0.07815725
0.0781237
0.07810733
0.07810814
0.07812635
0.07816192
0.07821317
0.0782725
0.07831196
0.0782396
0.07775531
0.07577081
0.06812388
0.04657303
0.02250902
0.09648967
0.09623794
0.09573193
0.09503581
0.09420312
0.09328179
0.09231274
0.09132776
0.09035078
0.08939928
0.08848548
0.08761741
0.08679981
0.08603487
0.08532295
0.08466311
0.08405354
0.08349189
0.08297556
0.08250196
0.08206843
0.0816725
0.08131187
0.08098438
0.08068813
0.08042131
0.08018225
0.07996935
0.07978115
0.07961619
0.07947316
0.07935078
0.07924792
0.07916352
0.07909666
0.07904656
0.07901262
0.07899447
0.07899183
0.07900454
0.07903209
0.07907211
0.07911618
0.07913553
0.07903916
0.07854304
0.07671673
0.07054651
0.05356944
0.014248
0.09651673
0.09627988
0.09580135
0.09514201
0.09435351
0.09348155
0.09256509
0.09163422
0.09071147
0.08981324
0.08895092
0.08813198
0.08736078
0.08663934
0.08596797
0.08534573
0.08477093
0.08424134
0.08375454
0.08330801
0.08289928
0.08252597
0.08218591
0.08187705
0.08159752
0.08134559
0.08111968
0.08091832
0.08074011
0.08058371
0.0804479
0.08033148
0.08023337
0.08015258
0.08008819
0.08003935
0.08000535
0.07998561
0.0799796
0.07998675
0.08000608
0.08003461
0.08006321
0.08006241
0.07993878
0.07938517
0.07725476
0.06898441
0.04557421
0.02310264
0.09654675
0.09632634
0.09587826
0.09525965
0.09452007
0.09370277
0.09284449
0.09197345
0.09111064
0.09027125
0.08946579
0.08870108
0.0879811
0.08730765
0.08668096
0.08610014
0.08556357
0.08506921
0.08461479
0.08419793
0.08381632
0.08346775
0.08315017
0.08286164
0.08260041
0.08236487
0.08215351
0.08196497
0.08179792
0.08165118
0.08152358
0.08141402
0.08132147
0.081245
0.08118366
0.08113656
0.08110288
0.08108184
0.08107263
0.08107431
0.08108537
0.08110223
0.08111521
0.08109571
0.08095866
0.08044991
0.07877565
0.07338797
0.05738667
0.01416594
0.09657977
0.09637734
0.09596268
0.09538877
0.09470282
0.09394541
0.09315083
0.09234525
0.09154799
0.0907729
0.09002954
0.08932405
0.08865998
0.08803889
0.08746094
0.08692527
0.08643037
0.08597435
0.0855551
0.08517048
0.08481833
0.08449662
0.08420343
0.08393698
0.08369565
0.08347796
0.08328251
0.08310804
0.08295333
0.0828173
0.08269889
0.08259708
0.0825109
0.08243943
0.08238173
0.08233687
0.08230394
0.08228198
0.08226989
0.08226636
0.08226935
0.08227462
0.08227162
0.08223079
0.08206609
0.08152082
0.07979499
0.0743382
0.05825022
0.01415778
0.09661579
0.09643283
0.0960545
0.09552915
0.09490144
0.09420898
0.0934834
0.09274865
0.09202223
0.09131661
0.09064029
0.0899987
0.08939493
0.08883032
0.08830492
0.08781791
0.08736792
0.08695319
0.08657184
0.0862219
0.08590143
0.08560858
0.08534162
0.08509895
0.08487908
0.08468064
0.0845024
0.08434321
0.08420197
0.08407769
0.0839694
0.08387617
0.08379709
0.08373128
0.08367782
0.08363574
0.08360404
0.08358162
0.08356713
0.08355888
0.08355433
0.0835485
0.08352972
0.08346584
0.0832605
0.08259649
0.08026598
0.0713246
0.04572714
0.02277087
0.09665469
0.0964926
0.09615338
0.09568025
0.09511511
0.09449229
0.09384058
0.09318153
0.09253075
0.0918992
0.09129431
0.09072078
0.09018121
0.0896767
0.08920722
0.08877201
0.08836979
0.08799901
0.08765797
0.08734493
0.08705817
0.08679604
0.086557
0.08633964
0.08614263
0.08596475
0.08580492
0.0856621
0.08553533
0.08542371
0.08532637
0.08524248
0.08517118
0.08511166
0.08506301
0.08502425
0.08499432
0.08497201
0.08495575
0.08494353
0.08493231
0.08491641
0.08488328
0.08480024
0.08457527
0.0839348
0.08201794
0.07604131
0.05855862
0.0141756
0.09669628
0.09655626
0.09625869
0.09584106
0.09534228
0.09479319
0.0942195
0.09364025
0.09306904
0.09251533
0.09198544
0.09148329
0.09101104
0.09056953
0.09015867
0.08977774
0.08942562
0.08910091
0.08880216
0.08852782
0.08827642
0.08804654
0.08783682
0.08764605
0.08747308
0.08731685
0.08717642
0.08705089
0.08693942
0.08684123
0.08675555
0.08668163
0.08661872
0.08656603
0.08652272
0.08648782
0.08646025
0.08643871
0.08642148
0.08640632
0.08638976
0.08636554
0.0863202
0.08621984
0.08597013
0.08529232
0.08331782
0.0772879
0.05979073
0.01417388
0.09674015
0.09662311
0.09636928
0.0960098
0.09558039
0.09510815
0.09461556
0.09411904
0.09363016
0.09315684
0.09270429
0.0922757
0.09187277
0.09149612
0.09114561
0.09082058
0.09052003
0.0902428
0.08998761
0.08975319
0.08953827
0.08934166
0.08916222
0.08899893
0.08885081
0.08871699
0.08859666
0.08848906
0.08839349
0.08830928
0.08823578
0.08817231
0.08811823
0.08807282
0.08803531
0.08800477
0.08798013
0.08796007
0.08794283
0.087926
0.08790588
0.08787579
0.08782159
0.08770754
0.08742982
0.086646
0.08403984
0.07424076
0.04649587
0.0221348
0.09678549
0.09669196
0.09648333
0.09618371
0.09582549
0.09543184
0.09502188
0.0946094
0.09420393
0.09381188
0.09343739
0.09308296
0.09274987
0.09243856
0.09214882
0.09188009
0.09163153
0.09140215
0.09119091
0.09099676
0.09081868
0.09065569
0.09050687
0.09037137
0.09024842
0.09013731
0.09003737
0.08994799
0.08986858
0.0897986
0.08973751
0.08968475
0.08963975
0.0896019
0.0895705
0.08954471
0.08952353
0.08950569
0.08948945
0.08947239
0.08945077
0.08941788
0.08935982
0.08924294
0.08897513
0.08828039
0.08626174
0.07989154
0.06074746
0.01408545
0.09683037
0.09676053
0.09659777
0.09635841
0.09607154
0.09575628
0.09542841
0.0950991
0.09477592
0.09446384
0.09416604
0.09388437
0.09361976
0.09337246
0.09314228
0.09292873
0.09273113
0.09254869
0.09238059
0.09222601
0.09208414
0.09195422
0.09183553
0.09172743
0.0916293
0.09154058
0.09146077
0.09138939
0.09132597
0.09127008
0.0912213
0.09117917
0.09114324
0.09111299
0.09108783
0.09106704
0.09104972
0.09103472
0.09102045
0.09100462
0.09098367
0.09095125
0.09089443
0.09078296
0.09053788
0.08993507
0.08828782
0.08327277
0.06638717
0.01400122
0.09686843
0.09682363
0.0967072
0.09652705
0.09630946
0.09606983
0.09582076
0.09557095
0.09532615
0.09509006
0.09486496
0.09465218
0.09445234
0.09426557
0.0940917
0.09393034
0.09378096
0.09364296
0.09351574
0.09339867
0.09329116
0.09319265
0.09310261
0.09302056
0.09294605
0.09287867
0.09281805
0.09276383
0.09271566
0.09267324
0.09263622
0.09260428
0.09257706
0.09255416
0.09253511
0.09251932
0.09250604
0.09249432
0.09248278
0.09246943
0.09245111
0.09242212
0.09237084
0.09227017
0.09204922
0.09150448
0.08999509
0.08521777
0.06802985
0.01395327
0.09686792
0.09686607
0.09680164
0.09667928
0.09652634
0.09635626
0.09617916
0.09600166
0.0958279
0.09566049
0.09550099
0.09535028
0.09520876
0.09507648
0.0949533
0.09483893
0.094733
0.09463507
0.09454473
0.09446155
0.0943851
0.09431501
0.09425091
0.09419247
0.09413938
0.09409136
0.09404816
0.09400952
0.09397522
0.09394502
0.09391872
0.09389605
0.09387678
0.09386061
0.09384719
0.0938361
0.09382676
0.09381843
0.09381003
0.09379996
0.09378562
0.09376217
0.09371951
0.09363329
0.09343759
0.09293499
0.09147523
0.0866239
0.06862863
0.01399016
0.09671821
0.0968387
0.09686208
0.09680143
0.09670641
0.09659592
0.09647979
0.09636326
0.09624924
0.09613946
0.09603492
0.09593616
0.09584343
0.09575674
0.095676
0.09560098
0.09553146
0.09546716
0.09540779
0.09535308
0.09530276
0.0952566
0.09521436
0.09517583
0.09514082
0.09510916
0.09508067
0.09505521
0.09503262
0.09501277
0.09499551
0.09498069
0.09496814
0.09495767
0.09494906
0.09494202
0.09493615
0.09493093
0.0949256
0.09491897
0.09490906
0.09489202
0.09485935
0.09478948
0.094621
0.09416091
0.0927446
0.08779955
0.06893859
0.01406048
0.09637142
0.09664821
0.09683868
0.09686588
0.09682306
0.09675928
0.09668964
0.09661923
0.09655024
0.09648381
0.09642055
0.09636079
0.09630466
0.09625218
0.09620328
0.09615782
0.09611567
0.09607665
0.0960406
0.09600735
0.09597675
0.09594866
0.09592294
0.09589947
0.09587814
0.09585886
0.09584151
0.09582603
0.09581232
0.0958003
0.09578988
0.09578099
0.09577352
0.09576737
0.0957624
0.09575843
0.09575523
0.09575247
0.09574966
0.09574598
0.09574002
0.0957288
0.09570534
0.09565075
0.09550825
0.09509115
0.09372912
0.08873559
0.06905486
0.01417009
0.09815278
0.0963713
0.09671817
0.09686777
0.09686801
0.09682947
0.09678387
0.0967375
0.09669222
0.09664881
0.09660762
0.09656881
0.09653245
0.09649851
0.09646693
0.09643761
0.09641044
0.0963853
0.09636208
0.09634067
0.09632097
0.09630288
0.09628632
0.09627121
0.09625749
0.09624509
0.09623396
0.09622403
0.09621526
0.0962076
0.096201
0.0961954
0.09619075
0.09618698
0.09618401
0.09618174
0.09618002
0.09617862
0.09617722
0.09617525
0.0961716
0.09616387
0.09614596
0.09610057
0.09597356
0.09558037
0.0942354
0.08914396
0.06885594
0.01456738
0.09416089
0.09545204
0.09609064
0.09621445
0.09621193
0.09618318
0.09614861
0.09611208
0.0960749
0.09603795
0.09600188
0.09596715
0.09593403
0.09590266
0.09587311
0.09584537
0.09581941
0.09579515
0.09577253
0.09575146
0.09573187
0.09571369
0.09569687
0.09568134
0.09566707
0.09565402
0.09564216
0.09563147
0.09562191
0.09561348
0.09560615
0.0955999
0.09559469
0.0955905
0.09558725
0.09558487
0.09558323
0.09558208
0.09558104
0.09557925
0.09557478
0.09556279
0.09553009
0.09543876
0.09517432
0.09437713
0.09187856
0.08378761
0.05854863
0.01455659
0.09545199
0.0960176
0.09619545
0.0962089
0.09616536
0.09610464
0.09603821
0.09596981
0.09590148
0.09583463
0.09577021
0.09570878
0.09565067
0.09559599
0.09554477
0.09549692
0.09545231
0.09541079
0.09537219
0.09533636
0.09530313
0.09527238
0.09524396
0.09521779
0.09519377
0.09517182
0.09515188
0.09513389
0.09511779
0.09510353
0.09509106
0.09508032
0.09507123
0.09506371
0.09505764
0.09505285
0.0950491
0.09504603
0.09504303
0.09503896
0.09503148
0.09501502
0.09497519
0.09487197
0.0945877
0.09376078
0.09124326
0.08330713
0.05877548
0.01416065
0.09609053
0.0961954
0.09617621
0.09611669
0.09602428
0.09591533
0.09579888
0.09568004
0.09556221
0.09544767
0.09533785
0.09523358
0.0951353
0.09504313
0.09495701
0.09487676
0.09480212
0.09473279
0.09466848
0.09460887
0.09455369
0.09450269
0.09445565
0.09441236
0.09437268
0.09433644
0.09430354
0.09427384
0.09424726
0.09422368
0.094203
0.0941851
0.09416984
0.09415705
0.09414651
0.09413794
0.09413094
0.09412492
0.09411897
0.09411155
0.09409962
0.09407656
0.09402614
0.0939053
0.09359198
0.09272287
0.09017744
0.0824018
0.05874981
0.01391324
0.09621433
0.09620887
0.0961168
0.09600234
0.09585285
0.09568172
0.09550008
0.09531543
0.09513292
0.09495595
0.09478664
0.09462621
0.09447524
0.09433388
0.094202
0.09407928
0.0939653
0.09385957
0.0937616
0.09367092