/*--------------------------------*- C++ -*----------------------------------*\
| =========                 |                                                 |
| \\      /  F ield         | OpenFOAM: The Open Source CFD Toolbox           |
|  \\    /   O peration     | Version:  2506                                  |
|   \\  /    A nd           | Website:  www.openfoam.com                      |
|    \\/     M anipulation  |                                                 |
\*---------------------------------------------------------------------------*/
FoamFile
{
    version     2.0;
    format      ascii;
    arch        "LSB;label=32;scalar=64";
    class       volScalarField;
    location    "30/airRegion";
    object      epsilon;
}
// * * * * * * * * * * * * * * * * * * * * * * * * * * * * * * * * * * * * * //

dimensions      [0 2 -3 0 0 0 0];

internalField   nonuniform List<scalar> 
260661
(
0.02522874
0.01927694
0.0182438
0.0182935
0.01845979
0.018626
0.01877623
0.01890933
0.01902751
0.01913301
0.0192277
0.01931304
0.01939022
0.0194602
0.0195238
0.0195817
0.01963452
0.01968275
0.01972686
0.01976722
0.01980418
0.01983802
0.01986898
0.01989727
0.01992309
0.01994658
0.0199679
0.01998716
0.02000448
0.02001998
0.02003379
0.02004603
0.02005687
0.02006647
0.02007507
0.02008296
0.0200905
0.02009818
0.02010665
0.0201168
0.02012985
0.02014756
0.02017257
0.02020914
0.02026497
0.02035633
0.02051803
0.02086078
0.02417477
0.07057176
0.01927673
0.01825703
0.01826336
0.01847442
0.01872018
0.01895235
0.01916082
0.01934662
0.01951271
0.01966184
0.01979628
0.01991787
0.02002813
0.02012832
0.02021953
0.0203027
0.02037865
0.02044809
0.02051163
0.02056983
0.02062315
0.02067199
0.0207167
0.02075757
0.02079487
0.02082883
0.02085963
0.02088748
0.02091253
0.02093497
0.02095498
0.02097275
0.0209885
0.02100251
0.02101511
0.02102669
0.02103779
0.0210491
0.02106153
0.02107631
0.02109514
0.02112047
0.02115599
0.02120771
0.02128655
0.02141612
0.02164779
0.02207231
0.02523838
0.0693588
0.01824309
0.01826284
0.0186101
0.01895923
0.01930541
0.01962482
0.01991265
0.02017132
0.02040432
0.0206148
0.02080546
0.02097854
0.02113596
0.02127934
0.02141014
0.02152961
0.02163885
0.02173885
0.02183046
0.02191443
0.0219914
0.02206195
0.02212657
0.02218566
0.0222396
0.0222887
0.02233324
0.0223735
0.02240973
0.02244218
0.02247113
0.02249685
0.02251967
0.02253999
0.02255826
0.02257507
0.02259115
0.02260745
0.02262524
0.0226462
0.02267266
0.02270797
0.02275721
0.02282873
0.02293767
0.02311635
0.02343265
0.02397662
0.02724222
0.06797805
0.01829208
0.01847304
0.01895825
0.01942402
0.01987504
0.02029158
0.02066992
0.02101277
0.0213238
0.02160644
0.02186366
0.02209807
0.02231193
0.02250726
0.02268584
0.02284925
0.02299893
0.02313613
0.02326197
0.02337744
0.02348338
0.02358056
0.0236696
0.02375106
0.02382542
0.02389312
0.02395453
0.02401002
0.02405993
0.02410464
0.02414449
0.02417991
0.02421132
0.02423926
0.02426437
0.0242874
0.02430934
0.02433142
0.02435528
0.02438308
0.02441779
0.02446362
0.02452697
0.02461816
0.0247557
0.02497797
0.02536165
0.02597737
0.02921613
0.06700102
0.01845732
0.01871747
0.0193028
0.01987321
0.02042735
0.02094317
0.02141594
0.0218479
0.0222425
0.02260315
0.02293295
0.02323472
0.02351096
0.02376399
0.02399589
0.02420855
0.02440369
0.02458286
0.02474743
0.02489861
0.02503748
0.02516493
0.02528181
0.02538876
0.02548642
0.02557531
0.02565595
0.02572876
0.02579422
0.0258528
0.02590498
0.02595134
0.02599238
0.02602885
0.02606152
0.02609136
0.02611958
0.02614772
0.02617773
0.0262122
0.02625463
0.02630995
0.02638551
0.02649308
0.0266532
0.0269079
0.02733637
0.02797824
0.03105662
0.06644353
0.01862208
0.01894774
0.01961977
0.02028682
0.02093995
0.02155336
0.02212058
0.02264288
0.0231232
0.02356467
0.02397032
0.02434298
0.02468532
0.02499981
0.0252888
0.02555441
0.02579864
0.02602327
0.0262299
0.02641997
0.02659478
0.02675535
0.02690274
0.02703763
0.02716081
0.0272729
0.0273745
0.02746621
0.02754862
0.02762229
0.02768783
0.02774594
0.02779731
0.02784287
0.02788349
0.02792038
0.02795496
0.027989
0.02802474
0.02806507
0.02811387
0.02817651
0.02826092
0.02837984
0.02855573
0.02883491
0.02930379
0.0300584
0.03324908
0.06711823
0.0187704
0.01915365
0.01990421
0.02066094
0.02140783
0.02211529
0.02277484
0.02338658
0.02395268
0.0244758
0.02495871
0.02540412
0.02581471
0.02619305
0.02654161
0.02686275
0.02715865
0.02743129
0.02768252
0.02791399
0.02812712
0.02832309
0.02850303
0.02866782
0.02881829
0.02895516
0.02907913
0.02919091
0.02929125
0.02938077
0.02946033
0.02953076
0.02959287
0.02964776
0.02969646
0.02974038
0.0297811
0.02982059
0.02986126
0.02990621
0.02995947
0.03002651
0.03011535
0.03023912
0.03042217
0.03071565
0.03122742
0.03253325
0.03894265
0.06833166
0.01890107
0.01933612
0.0201584
0.02099807
0.02183293
0.02262986
0.02337835
0.0240772
0.02472768
0.02533184
0.02589202
0.02641071
0.02689047
0.02733388
0.02774348
0.02812175
0.02847102
0.02879351
0.02909123
0.02936592
0.02961916
0.02985228
0.03006647
0.03026265
0.03044176
0.0306046
0.03075195
0.03088463
0.03100352
0.03110943
0.03120334
0.0312863
0.03135926
0.03142345
0.03148012
0.03153079
0.03157721
0.03162146
0.03166607
0.03171416
0.03176974
0.03183807
0.03192673
0.03204824
0.03222774
0.03252554
0.03312696
0.03672084
0.06853533
0.2798457
0.01901621
0.01949803
0.02038567
0.02130168
0.02221845
0.02309965
0.02393283
0.02471545
0.02544781
0.02613124
0.02676757
0.02735895
0.02790774
0.02841644
0.0288876
0.02932376
0.02972739
0.03010083
0.0304462
0.03076538
0.03106002
0.03133151
0.03158112
0.03180983
0.03201856
0.03220818
0.03237957
0.03253367
0.03267137
0.03279389
0.03290218
0.03299758
0.03308121
0.03315448
0.03321878
0.03327573
0.03332722
0.03337541
0.03342282
0.03347257
0.03352847
0.03359548
0.03368065
0.03379547
0.03396338
0.03423792
0.03472375
0.03599249
0.04165462
0.06967361
0.01911803
0.01964203
0.02058906
0.02157499
0.02256753
0.02352746
0.02444049
0.0253028
0.02611369
0.02687371
0.02758412
0.02824665
0.0288634
0.02943674
0.02996913
0.03046315
0.03092137
0.03134619
0.03173977
0.03210417
0.03244104
0.03275185
0.03303774
0.03329974
0.03353871
0.03375553
0.03395114
0.03412664
0.0342831
0.03442206
0.03454447
0.03465197
0.03474583
0.03482768
0.03489907
0.03496168
0.03501749
0.03506868
0.03511777
0.03516771
0.03522203
0.03528524
0.03536359
0.03546744
0.03561976
0.03587349
0.03633038
0.03765477
0.04395755
0.06970351
0.01920832
0.01977031
0.02077112
0.02182081
0.02288301
0.02391594
0.02490364
0.02584104
0.02672646
0.02755966
0.02834129
0.02907264
0.02975548
0.03039195
0.03098449
0.03153568
0.03204804
0.032524
0.03296586
0.03337575
0.03375516
0.03410557
0.03442821
0.03472384
0.03499329
0.03523739
0.03545721
0.03565396
0.03582881
0.03598352
0.03611941
0.03623844
0.03634188
0.03643156
0.03650928
0.03657686
0.03663618
0.03668943
0.03673914
0.03678793
0.03683908
0.03689649
0.03696545
0.03705546
0.03718987
0.03742723
0.03793521
0.04166777
0.07538882
0.3034591
0.01928849
0.01988461
0.02093396
0.02204154
0.02316743
0.02426759
0.02532456
0.02633208
0.02728756
0.02818997
0.02903936
0.02983652
0.03058291
0.03128041
0.03193136
0.03253827
0.03310366
0.03363006
0.03411976
0.03457474
0.03499666
0.03538687
0.03574624
0.03607544
0.03637525
0.03664643
0.03688998
0.0371072
0.03729969
0.03746941
0.03761795
0.03774746
0.03785963
0.03795636
0.03803957
0.03811118
0.03817315
0.03822755
0.03827683
0.03832342
0.03837022
0.03842068
0.03847952
0.03855598
0.03867282
0.03888379
0.03929752
0.04055177
0.04624492
0.06901544
0.01935965
0.01998634
0.02107936
0.02223925
0.02342305
0.02458473
0.02570545
0.02677792
0.02779865
0.02876589
0.02967906
0.03053849
0.03134525
0.03210107
0.03280815
0.03346882
0.03408562
0.03466113
0.0351976
0.03569704
0.03616095
0.03659047
0.03698627
0.03734884
0.03767858
0.0379761
0.03824253
0.03847935
0.03868847
0.03887192
0.03903196
0.03917086
0.03929073
0.03939351
0.03948121
0.03955594
0.03961977
0.03967448
0.03972237
0.03976586
0.03980723
0.03984954
0.03989688
0.03995822
0.04005688
0.04024843
0.04065208
0.04204099
0.04861158
0.06901217
0.0194227
0.0200767
0.0212088
0.02241574
0.02365189
0.02486947
0.02604844
0.02718057
0.02826153
0.0292889
0.03026152
0.03117926
0.03204285
0.03285379
0.03361406
0.03432599
0.0349921
0.03561491
0.03619669
0.03673936
0.03724427
0.03771237
0.03814395
0.03853917
0.03889807
0.03922107
0.03950924
0.03976436
0.03998865
0.0401846
0.04035484
0.04050189
0.0406282
0.0407359
0.04082718
0.04090422
0.0409689
0.04102313
0.04106893
0.04110844
0.04114354
0.04117668
0.04121116
0.04125515
0.04133224
0.04150335
0.04194409
0.04599934
0.08362878
0.3264087
0.01947841
0.02015667
0.02132361
0.02257262
0.02385578
0.02512379
0.02635557
0.02754201
0.02867807
0.02976068
0.03078814
0.03175989
0.03267635
0.03353876
0.03434895
0.03510918
0.03582199
0.03648979
0.03711493
0.03769915
0.0382437
0.03874918
0.03921548
0.03964234
0.04002928
0.04037649
0.04068508
0.04095701
0.04119485
0.04140173
0.04158067
0.0417345
0.04186609
0.04197762
0.04207163
0.04215008
0.04221481
0.0422679
0.04231097
0.04234584
0.04237418
0.0423979
0.04241981
0.04244695
0.0424995
0.04263029
0.04294505
0.04402831
0.0496325
0.06697486
0.01952739
0.02022709
0.02142488
0.02271126
0.02403634
0.0253495
0.02662873
0.02786418
0.02905014
0.03018297
0.03126049
0.03228172
0.03324678
0.03415668
0.03501311
0.03581828
0.03657469
0.03728476
0.03795077
0.03857438
0.03915671
0.03969788
0.04019739
0.04065442
0.04106796
0.04143786
0.04176518
0.04205218
0.04230204
0.04251834
0.04270454
0.04286384
0.04299955
0.04311401
0.04320986
0.04328888
0.04335309
0.04340436
0.04344414
0.04347387
0.04349495
0.04350872
0.04351754
0.04352741
0.04355682
0.04365794
0.04393577
0.04444556
0.04620028
0.06572169
0.01957018
0.02028869
0.02151359
0.02283291
0.02419504
0.02554824
0.0268697
0.0281489
0.02937957
0.03055754
0.03168019
0.03274618
0.03375538
0.03470852
0.03560716
0.03645349
0.03725007
0.03799916
0.03870304
0.03936336
0.03998095
0.04055567
0.0410864
0.04157175
0.04201008
0.04240084
0.04274511
0.0430455
0.04330577
0.04353003
0.04372218
0.04388587
0.04402466
0.04414119
0.04423794
0.04431703
0.04438033
0.04442925
0.04446531
0.04448949
0.04450278
0.04450613
0.04450151
0.04449538
0.04450908
0.04459706
0.04487272
0.04599493
0.05182402
0.06640603
0.01960723
0.02034209
0.02159059
0.02293863
0.02433317
0.02572149
0.02708009
0.0283979
0.02966812
0.03088614
0.03204893
0.03315484
0.03420345
0.03519536
0.036132
0.03701541
0.03784825
0.03863266
0.03937089
0.04006468
0.04071447
0.04131981
0.04187918
0.04239046
0.04285135
0.04326095
0.04362037
0.0439326
0.04420168
0.04443261
0.04462965
0.04479692
0.04493808
0.04505608
0.04515332
0.04523213
0.04529401
0.04534032
0.04537234
0.04539067
0.04539571
0.04538808
0.04536918
0.04534626
0.0453457
0.04543382
0.04578955
0.05003474
0.08805622
0.3416181
0.01963893
0.02038782
0.0216566
0.02302937
0.02445187
0.02587057
0.02726139
0.02861275
0.02991743
0.03117042
0.03236833
0.03350924
0.03459246
0.03561843
0.03658852
0.03750469
0.0383694
0.03918499
0.03995373
0.04067707
0.04135535
0.04198791
0.04257262
0.04310684
0.04358777
0.04401401
0.04438669
0.04470919
0.04498606
0.04522272
0.0454239
0.04559423
0.04573735
0.04585643
0.04595399
0.04603222
0.04609254
0.04613616
0.04616405
0.04617639
0.04617312
0.04615448
0.04612156
0.04608161
0.04606211
0.04613009
0.04644613
0.04862345
0.05941331
0.07242082
0.0196656
0.02042633
0.02171224
0.02310593
0.02455215
0.02599665
0.02741488
0.02879485
0.03012897
0.03141189
0.03263991
0.03381084
0.03492379
0.03597904
0.03697781
0.03792204
0.03881411
0.03965649
0.04045126
0.04119964
0.04190217
0.04255777
0.04316411
0.04371787
0.0442158
0.04465622
0.04504033
0.04537182
0.04565569
0.04589748
0.04610244
0.04627546
0.04642058
0.04654071
0.04663865
0.04671626
0.04677511
0.04681608
0.04683993
0.04684625
0.04683452
0.04680423
0.0467551
0.04669201
0.0466391
0.04665731
0.04691137
0.05101537
0.08840272
0.3444027
0.01968752
0.02045799
0.02175803
0.02316901
0.02463483
0.02610072
0.0275417
0.02894546
0.03030408
0.03161193
0.03286505
0.03406102
0.03519876
0.03627838
0.03730101
0.03826848
0.03918306
0.04004738
0.04086335
0.04163208
0.04235415
0.04302815
0.04365168
0.04422103
0.04473274
0.04518493
0.04557879
0.04591811
0.04620822
0.04645489
0.04666372
0.04683959
0.04698674
0.04710812
0.0472066
0.0472839
0.04734151
0.04738008
0.04740016
0.04740076
0.047381
0.04733975
0.04727558
0.04719111
0.0471047
0.04706934
0.04719915
0.04825964
0.05391433
0.06827505
0.0197049
0.02048313
0.02179442
0.02321917
0.02470065
0.02618362
0.02764281
0.02906562
0.03044388
0.03177173
0.03304497
0.034261
0.03541855
0.03651757
0.03755912
0.03854491
0.03947715
0.04035833
0.04119036
0.04197438
0.04271092
0.04339849
0.04403462
0.04461549
0.04513755
0.04559889
0.04600072
0.04634684
0.0466426
0.04689405
0.04710681
0.04728582
0.04743538
0.04755843
0.04765783
0.04773522
0.04779199
0.0478286
0.04784531
0.0478407
0.04781345
0.0477618
0.04768315
0.0475788
0.04746536
0.04739351
0.0474757
0.048442
0.05385975
0.06814787
0.01971793
0.02050199
0.02182174
0.02325686
0.02475014
0.02624602
0.02771896
0.02915617
0.03054929
0.03189224
0.03318067
0.03441179
0.03558418
0.0366977
0.03775316
0.03875221
0.03969701
0.04059003
0.04143305
0.04222715
0.04297292
0.04366891
0.04431285
0.04490097
0.04542982
0.04589763
0.04630555
0.0466574
0.04695855
0.04721486
0.0474317
0.04761425
0.04776664
0.04789183
0.04799262
0.0480706
0.04812706
0.04816227
0.04817614
0.04816704
0.04813314
0.04807194
0.04797978
0.04785757
0.04772416
0.0476295
0.04771282
0.05149289
0.08717303
0.3396369
0.01972673
0.02051473
0.02184023
0.02328239
0.02478369
0.02628835
0.02777066
0.02921768
0.03062089
0.0319741
0.0332728
0.03451406
0.03569632
0.03681928
0.03788367
0.03889106
0.03984344
0.04074309
0.04159193
0.04239102
0.04314087
0.04384032
0.04448726
0.04507832
0.04561045
0.04608205
0.04649428
0.04685082
0.04715676
0.04741766
0.04763891
0.04782527
0.04798086
0.04810867
0.04821125
0.04829034
0.04834702
0.04838146
0.04839323
0.04838061
0.04834133
0.0482724
0.04816972
0.04803443
0.04788719
0.04778153
0.04783958
0.04971295
0.05999182
0.07410037
0.01973137
0.02052146
0.02185002
0.02329594
0.02480152
0.02631086
0.02779817
0.02925042
0.03065899
0.03201761
0.03332164
0.03456808
0.03575525
0.03688269
0.03795103
0.03896172
0.03991673
0.04081796
0.04166744
0.04246646
0.04321527
0.04391325
0.04455852
0.04514836
0.0456802
0.04615284
0.04656744
0.04692738
0.04723746
0.04750267
0.04772825
0.04791862
0.04807773
0.04820852
0.04831333
0.048394
0.04845151
0.04848581
0.04849637
0.04848122
0.04843773
0.04836219
0.04824943
0.04809936
0.0479324
0.04779715
0.04781513
0.05246668
0.09775877
0.4245905
0.01973186
0.02052219
0.02185109
0.02329744
0.02480351
0.02631338
0.02780124
0.02925404
0.03066313
0.03202218
0.03332652
0.03457303
0.03575997
0.03688679
0.03795402
0.03896295
0.03991548
0.04081338
0.04165859
0.04245257
0.04319568
0.0438876
0.04452699
0.04511171
0.04563991
0.0461108
0.04652561
0.04688739
0.04720039
0.04746926
0.04769858
0.0478928
0.0480553
0.04818905
0.04829638
0.0483789
0.04843763
0.04847252
0.04848286
0.04846652
0.04842083
0.0483415
0.04822299
0.04806444
0.04788517
0.04773138
0.04771575
0.05227814
0.09728328
0.4251569
0.01972817
0.02051688
0.02184341
0.02328684
0.02478959
0.02629582
0.02777977
0.02922842
0.03063315
0.03198764
0.03328723
0.03452875
0.0357104
0.03683159
0.03789274
0.03889505
0.03984026
0.04073022
0.04156678
0.04235139
0.04308467
0.04376666
0.04439663
0.04497294
0.04549453
0.04596108
0.04637381
0.0467355
0.04704984
0.04732109
0.04755321
0.04775054
0.04791593
0.0480523
0.04816199
0.04824646
0.04830667
0.04834279
0.04835383
0.04833779
0.04829194
0.04821204
0.04809273
0.047933
0.04775046
0.04759511
0.04758002
0.04925525
0.0588179
0.07350076
0.01972031
0.02050552
0.02182696
0.02326416
0.02475981
0.02625826
0.02773388
0.02917377
0.03056938
0.03191446
0.03320438
0.034436
0.03560751
0.0367183
0.03776876
0.03875988
0.03969344
0.04057124
0.04139518
0.04216663
0.04288655
0.04355534
0.04417274
0.04473785
0.04525022
0.04570995
0.04611837
0.04647792
0.04679184
0.04706391
0.04729775
0.04749703
0.04766463
0.04780315
0.04791482
0.04800121
0.04806315
0.04810087
0.04811338
0.04809883
0.04805427
0.04797561
0.04785712
0.04769715
0.04751222
0.04735164
0.04735199
0.0508244
0.08195796
0.3015861
0.01970816
0.02048798
0.02180159
0.02322919
0.02471391
0.02620041
0.02766328
0.02908976
0.03047148
0.03180228
0.03307766
0.03429454
0.03545112
0.03654681
0.03758202
0.03855768
0.03947547
0.04033727
0.04114482
0.04189963
0.04260318
0.04325592
0.043858
0.04440944
0.04491027
0.04536091
0.0457627
0.04611793
0.04642949
0.04670061
0.04693458
0.04713452
0.04730332
0.0474433
0.04755648
0.04764452
0.04770833
0.0477479
0.0477626
0.0477507
0.04770913
0.04763418
0.04752037
0.04736635
0.04718853
0.04703416
0.0470134
0.04862911
0.05793196
0.07309028
0.0196916
0.02046407
0.02176701
0.02318156
0.02465144
0.02612175
0.02756735
0.02897573
0.03033872
0.03165037
0.03290631
0.03410361
0.03524053
0.03631654
0.03733201
0.03828799
0.03918603
0.04002802
0.04081579
0.04155105
0.04223524
0.04286929
0.04345393
0.04398954
0.04447657
0.04491588
0.04530892
0.04565772
0.04596477
0.04623306
0.04646545
0.04666472
0.04683341
0.0469739
0.047088
0.0471772
0.04724264
0.0472843
0.0473018
0.04729346
0.04725629
0.04718677
0.04707934
0.04693266
0.04676446
0.04661875
0.04660613
0.0509933
0.09433769
0.4148228
0.01967044
0.02043352
0.02172287
0.02312079
0.02457181
0.02602154
0.02744525
0.02883073
0.0301701
0.03145765
0.03268922
0.03386205
0.03497459
0.03602636
0.03701779
0.03794994
0.03882435
0.03964303
0.04040785
0.04112056
0.04178289
0.04239595
0.04296089
0.04347862
0.04394987
0.04437573
0.04475777
0.04509796
0.04539857
0.04566193
0.04589099
0.04608814
0.04625543
0.04639531
0.04650945
0.04659943
0.04666623
0.04671008
0.04673088
0.04672699
0.04669594
0.04663457
0.04653797
0.04640545
0.04625522
0.04613048
0.04613912
0.0505218
0.0938732
0.4135213
0.01964443
0.020396
0.02166869
0.02304626
0.02447424
0.02589889
0.02729595
0.02865362
0.02996436
0.03122277
0.03242501
0.03356854
0.03465195
0.03567489
0.03663791
0.03754218
0.03838933
0.03918126
0.03991996
0.04060744
0.04124533
0.04183526
0.04237851
0.04287641
0.04332997
0.04374044
0.04410945
0.044439
0.04473099
0.0449876
0.04521153
0.0454047
0.04556937
0.04570751
0.0458209
0.04591101
0.04597882
0.04602487
0.0460493
0.04605078
0.04602737
0.04597664
0.04589502
0.04578295
0.04565799
0.04556676
0.04561718
0.04727792
0.0566705
0.07363809
0.0196133
0.02035112
0.02160393
0.02295726
0.02435783
0.02575271
0.02711822
0.02844304
0.02972004
0.03094423
0.03211209
0.03322137
0.0342709
0.03526056
0.036191
0.03706346
0.03787963
0.0386415
0.03935111
0.04001058
0.04062175
0.04118637
0.04170603
0.04218219
0.04261616
0.04300944
0.04336362
0.04368054
0.04396205
0.04421015
0.04442724
0.04461496
0.0447756
0.04491093
0.04502256
0.04511201
0.04518046
0.04522859
0.04525668
0.04526405
0.04524912
0.04521008
0.04514425
0.04505278
0.04495368
0.04489813
0.04502929
0.04851782
0.07913896
0.2967612
0.0195767
0.0202984
0.02152794
0.02285294
0.02422155
0.02558181
0.02691071
0.02819749
0.02943556
0.03062036
0.03174879
0.03281892
0.03382993
0.03478181
0.03567544
0.03651221
0.03729388
0.03802246
0.03870015
0.03932905
0.03991122
0.04044852
0.04094265
0.04139529
0.041808
0.04218238
0.04251995
0.04282241
0.04309163
0.04332954
0.04353807
0.0437191
0.04387437
0.04400571
0.04411461
0.04420277
0.0442714
0.0443213
0.04435309
0.04436661
0.04436087
0.04433479
0.04428701
0.04422015
0.04415269
0.04413346
0.04428246
0.04588858
0.05449455
0.07022598
0.01953425
0.02023731
0.02143998
0.02273234
0.02406423
0.02538481
0.02667188
0.02791534
0.02910919
0.03024939
0.03133331
0.03235944
0.03332724
0.03423703
0.0350898
0.03588708
0.03663078
0.037323
0.03796599
0.03856185
0.03911283
0.03962081
0.04008763
0.04051517
0.04090501
0.04125879
0.04157816
0.04186472
0.04212006
0.0423462
0.0425448
0.04271768
0.04286635
0.04299259
0.04309801
0.04318419
0.04325236
0.04330363
0.04333892
0.04335855
0.0433621
0.04334916
0.04331914
0.04327584
0.04323926
0.04326403
0.04350537
0.04707732
0.07762593
0.2927104
0.01948549
0.02016721
0.02133919
0.02259437
0.02388454
0.0251602
0.02640007
0.02759482
0.0287391
0.0298295
0.03086388
0.03184119
0.03276125
0.03362467
0.03443264
0.03518686
0.03588935
0.03654226
0.03714795
0.03770848
0.0382261
0.0387029
0.03914081
0.0395417
0.03990722
0.04023895
0.04053858
0.04080774
0.04104801
0.04126106
0.0414484
0.04161182
0.04175285
0.04187314
0.04197421
0.0420576
0.04212477
0.04217697
0.04221544
0.04224098
0.04225381
0.04225434
0.04224313
0.0422253
0.04222165
0.04228333
0.04253301
0.04427883
0.05336353
0.07097628
0.01942988
0.02008739
0.02122461
0.02243779
0.02368103
0.02490634
0.0260935
0.02723406
0.02832343
0.02935885
0.03033876
0.03126258
0.03213054
0.03294353
0.033703
0.03441078
0.03506897
0.03567985
0.03624572
0.03676881
0.03725129
0.03769536
0.03810284
0.03847561
0.03881541
0.03912392
0.03940268
0.03965317
0.03987701
0.0400757
0.04025075
0.04040372
0.04053621
0.04064964
0.04074551
0.04082547
0.04089104
0.04094363
0.04098481
0.04101579
0.04103739
0.04105071
0.04105694
0.04106148
0.04108498
0.04118113
0.04150675
0.0452011
0.07854351
0.3157744
0.0193668
0.01999701
0.02109511
0.02226121
0.02345206
0.02462141
0.02575027
0.02683115
0.02786029
0.02883566
0.02975633
0.03062221
0.03143394
0.03219274
0.03290027
0.03355853
0.03416971
0.03473607
0.03525993
0.03574362
0.0361893
0.03659908
0.03697479
0.03731833
0.03763137
0.03791552
0.0381723
0.03840317
0.03860967
0.03879307
0.03895492
0.03909669
0.03921975
0.03932549
0.03941549
0.03949137
0.03955472
0.03960713
0.03965041
0.03968623
0.03971604
0.03974168
0.03976538
0.03979307
0.03984281
0.0399609
0.04024097
0.04134495
0.04711765
0.06960626
0.0192955
0.01989506
0.02094941
0.02206306
0.02319582
0.02430347
0.02536837
0.02638411
0.02734784
0.0282583
0.0291152
0.029919
0.03067073
0.03137192
0.03202445
0.03263043
0.03319215
0.03371192
0.03419206
0.03463476
0.03504219
0.0354164
0.03575929
0.03607263
0.03635804
0.03661701
0.03685104
0.03706155
0.03724995
0.03741744
0.03756538
0.03769511
0.03780805
0.03790554
0.03798906
0.03806025
0.03812077
0.03817233
0.03821701
0.03825684
0.03829387
0.03833076
0.0383706
0.03842033
0.03849879
0.03865262
0.03897519
0.04006834
0.04552737
0.06940036
0.01921508
0.01978039
0.02078601
0.02184153
0.02291032
0.02395042
0.02494572
0.02589098
0.02678433
0.02762532
0.02841431
0.02915229
0.02984069
0.03048132
0.03107626
0.03162772
0.03213803
0.03260951
0.03304442
0.03344495
0.03381316
0.03415104
0.03446037
0.03474279
0.03499991
0.03523322
0.03544404
0.03563364
0.03580331
0.03595429
0.03608779
0.03620507
0.03630742
0.03639612
0.03647264
0.03653858
0.03659563
0.03664566
0.03669089
0.03673374
0.03677677
0.03682338
0.03687757
0.0369475
0.03705458
0.03725149
0.03769878
0.04130667
0.07450931
0.3027344
0.01912443
0.01965158
0.02060316
0.0215946
0.02259333
0.02355999
0.02448015
0.02534985
0.02616821
0.02693559
0.02765302
0.02832199
0.0289443
0.029522
0.03005733
0.03055257
0.03101006
0.03143207
0.03182081
0.03217836
0.03250671
0.0328077
0.03308303
0.03333426
0.03356286
0.03377018
0.03395748
0.03412594
0.03427673
0.03441095
0.03452973
0.03463424
0.03472566
0.03480521
0.03487428
0.03493447
0.03498747
0.03503522
0.0350801
0.0351248
0.03517242
0.03522716
0.03529437
0.03538353
0.0355164
0.0357432
0.03616151
0.03742246
0.04359866
0.06980195
0.01902216
0.0195069
0.02039877
0.02131987
0.02224236
0.02312976
0.02396948
0.02475888
0.02549812
0.02618835
0.02683122
0.02742867
0.02798281
0.02849591
0.02897029
0.02940827
0.02981213
0.03018409
0.03052625
0.03084057
0.03112889
0.03139293
0.03163426
0.03185432
0.03205444
0.03223584
0.03239968
0.03254703
0.03267891
0.03279635
0.03290035
0.03299197
0.0330723
0.03314247
0.03320378
0.03325778
0.03330616
0.03335086
0.03339436
0.03343957
0.03348996
0.03355038
0.03362727
0.03373149
0.03388591
0.03414298
0.03460421
0.03583797
0.04145699
0.06974349
0.01890648
0.0193442
0.02017031
0.0210146
0.02185461
0.02265711
0.02341148
0.02411641
0.02477306
0.02538335
0.02594945
0.0264737
0.02695844
0.02740607
0.02781894
0.02819935
0.0285495
0.02887148
0.02916724
0.0294386
0.02968726
0.02991475
0.0301225
0.03031181
0.03048387
0.03063975
0.03078049
0.03090703
0.0310203
0.03112116
0.03121054
0.03128936
0.0313586
0.03141931
0.03147269
0.03152017
0.0315634
0.03160428
0.03164532
0.03168953
0.03174062
0.03180383
0.03188634
0.03200029
0.03217053
0.03245686
0.03304268
0.03660389
0.06823825
0.2787808
0.01877519
0.01916082
0.01991479
0.02067559
0.02142701
0.02213935
0.02280404
0.02342109
0.02399257
0.02452106
0.02500917
0.02545951
0.02587457
0.02625679
0.02660849
0.02693185
0.02722895
0.02750172
0.02775193
0.02798123
0.02819112
0.02838296
0.02855801
0.02871741
0.0288622
0.02899331
0.02911163
0.02921798
0.02931316
0.02939793
0.02947306
0.02953937
0.02959773
0.02964906
0.02969445
0.02973521
0.02977286
0.02980923
0.02984675
0.02988841
0.02993804
0.03000112
0.03008542
0.03020383
0.03038054
0.03066637
0.03116842
0.03245903
0.03883532
0.06837836
0.01862621
0.01895392
0.01962889
0.02029944
0.02095643
0.02157399
0.02214556
0.02267235
0.02315722
0.02360324
0.02401331
0.02439019
0.0247364
0.02505431
0.02534612
0.02561386
0.02585943
0.02608453
0.02629074
0.02647949
0.02665209
0.0268097
0.02695342
0.02708418
0.02720289
0.02731033
0.02740723
0.02749431
0.02757222
0.02764159
0.02770309
0.02775741
0.02780527
0.02784749
0.02788499
0.02791896
0.02795075
0.02798203
0.02801505
0.02805266
0.02809857
0.02815817
0.02823923
0.02835436
0.02852589
0.0287999
0.02926243
0.03000941
0.03319405
0.06714316
0.01846074
0.01872259
0.01931037
0.01988367
0.02044099
0.02096021
0.02143653
0.02187215
0.02227046
0.02263481
0.02296824
0.02327346
0.02355292
0.02380881
0.02404313
0.02425769
0.02445413
0.02463394
0.02479845
0.02494886
0.02508627
0.02521165
0.02532587
0.02542974
0.02552397
0.02560921
0.02568606
0.02575508
0.02581681
0.02587177
0.02592048
0.02596351
0.02600147
0.02603502
0.02606494
0.02609222
0.02611804
0.02614384
0.02617161
0.02620389
0.02624407
0.02629712
0.02637024
0.02647511
0.02663225
0.02688352
0.02730804
0.02794575
0.03102261
0.06646064
0.01829476
0.01847708
0.01896423
0.0194323
0.01988581
0.020305
0.02068612
0.02103182
0.02134574
0.02163125
0.0218913
0.02212842
0.02234481
0.02254242
0.02272296
0.02288796
0.02303878
0.02317664
0.02330262
0.02341769
0.02352272
0.02361848
0.02370567
0.0237849
0.02385673
0.02392168
0.0239802
0.02403273
0.02407969
0.02412148
0.02415851
0.02419122
0.02422008
0.02424562
0.02426845
0.02428938
0.02430936
0.02432957
0.02435166
0.02437778
0.02441078
0.02445495
0.02451656
0.0246059
0.02474144
0.02496147
0.02534268
0.02595592
0.02919389
0.0670125
0.01824504
0.01826583
0.01861455
0.01896538
0.01931342
0.01963479
0.01992466
0.02018543
0.02042055
0.02063316
0.02082591
0.021001
0.0211603
0.0213054
0.0214377
0.0215584
0.02166858
0.02176916
0.02186099
0.0219448
0.02202124
0.02209088
0.02215426
0.02221182
0.02226397
0.0223111
0.02235355
0.02239163
0.02242564
0.02245589
0.02248268
0.02250633
0.02252719
0.02254564
0.02256216
0.02257734
0.02259192
0.02260681
0.02262328
0.022643
0.02266823
0.02270237
0.02275041
0.02282068
0.02292833
0.02310558
0.02342039
0.0239629
0.02722814
0.06798508
0.01927787
0.01825902
0.01826642
0.01847868
0.01872574
0.01895928
0.01916917
0.01935644
0.01952401
0.01967462
0.01981053
0.01993353
0.02004512
0.02014654
0.02023884
0.02032292
0.02039958
0.02046951
0.02053329
0.02059147
0.0206445
0.0206928
0.02073673
0.0207766
0.02081272
0.02084534
0.0208747
0.02090102
0.02092451
0.02094537
0.02096382
0.02098009
0.02099442
0.02100707
0.02101838
0.02102879
0.02103881
0.02104909
0.02106058
0.02107449
0.02109247
0.02111701
0.02115175
0.02120266
0.02128069
0.0214094
0.0216402
0.02206396
0.02523002
0.06936233
0.02522883
0.0192781
0.01824584
0.0182964
0.01846359
0.01863074
0.01878195
0.01891606
0.01903526
0.01914179
0.0192375
0.01932383
0.01940195
0.01947281
0.01953719
0.01959577
0.01964912
0.01969775
0.01974207
0.01978248
0.0198193
0.01985283
0.0198833
0.01991096
0.01993599
0.01995858
0.0199789
0.0199971
0.02001332
0.02002771
0.02004041
0.02005157
0.02006137
0.02007
0.02007767
0.02008471
0.02009147
0.02009841
0.02010622
0.02011576
0.02012822
0.0201454
0.0201699
0.02020593
0.02026125
0.02035208
0.02051329
0.02085572
0.02417004
0.07057229
0.02030612
0.0171973
0.01635186
0.01632623
0.01646515
0.01662149
0.01676692
0.01689743
0.01701414
0.01711886
0.01721322
0.01729852
0.01737584
0.01744609
0.01751004
0.01756833
0.01762155
0.0176702
0.0177147
0.01775545
0.01779278
0.01782695
0.01785823
0.01788682
0.0179129
0.01793664
0.01795816
0.0179776
0.01799508
0.01801072
0.01802464
0.01803698
0.01804788
0.01805753
0.01806617
0.01807408
0.01808163
0.01808932
0.0180978
0.01810795
0.018121
0.01813867
0.01816352
0.01819968
0.01825516
0.01835091
0.01856393
0.01933199
0.02417756
0.07345402
0.01719712
0.01642461
0.01632339
0.01647852
0.01669131
0.0169002
0.01709063
0.01726157
0.01741505
0.0175533
0.01767825
0.01779149
0.01789435
0.01798795
0.01807324
0.01815109
0.01822221
0.01828726
0.01834681
0.01840136
0.01845134
0.01849711
0.01853901
0.01857731
0.01861225
0.01864405
0.01867288
0.01869893
0.01872235
0.01874332
0.01876199
0.01877856
0.01879324
0.01880627
0.01881796
0.0188287
0.01883898
0.01884945
0.01886094
0.01887462
0.01889205
0.01891545
0.01894811
0.01899531
0.01906707
0.01918788
0.01943743
0.02022801
0.024795
0.06922222
0.01635122
0.01632291
0.01656405
0.0168614
0.01716162
0.01744157
0.01769531
0.01792398
0.0181303
0.01831694
0.01848619
0.01863995
0.01877988
0.01890739
0.01902372
0.01912998
0.01922714
0.01931606
0.01939749
0.0194721
0.01954047
0.0196031
0.01966042
0.01971282
0.01976061
0.01980408
0.01984349
0.01987908
0.01991107
0.0199397
0.01996521
0.01998785
0.02000792
0.02002575
0.02004177
0.02005647
0.02007053
0.02008476
0.02010028
0.02011856
0.02014159
0.02017221
0.02021456
0.02027532
0.02036681
0.02051735
0.02080989
0.02163557
0.02603474
0.0656682
0.01632489
0.01647724
0.01686052
0.01726229
0.01764908
0.01800654
0.01833144
0.01862579
0.0188927
0.01913514
0.01935569
0.01955658
0.01973976
0.01990695
0.02005969
0.02019935
0.02032715
0.0204442
0.02055146
0.02064978
0.0207399
0.02082247