/*--------------------------------*- C++ -*----------------------------------*\
| =========                 |                                                 |
| \\      /  F ield         | OpenFOAM: The Open Source CFD Toolbox           |
|  \\    /   O peration     | Version:  2506                                  |
|   \\  /    A nd           | Website:  www.openfoam.com                      |
|    \\/     M anipulation  |                                                 |
\*---------------------------------------------------------------------------*/
FoamFile
{
    version     2.0;
    format      ascii;
    arch        "LSB;label=32;scalar=64";
    class       volScalarField;
    location    "2500/air";
    object      epsilon;
}
// * * * * * * * * * * * * * * * * * * * * * * * * * * * * * * * * * * * * * //

dimensions      [0 2 -3 0 0 0 0];

internalField   nonuniform List<scalar> 
33752
(
0.03695426
0.03651099
0.03612169
0.03582412
0.03558536
0.03538543
0.03521303
0.03506144
0.03492741
0.03481022
0.03471106
0.03463234
0.03457737
0.03454997
0.03455246
0.03458644
0.03465224
0.03474881
0.03487393
0.03502457
0.0351974
0.03538943
0.03559859
0.0358244
0.0360688
0.03633715
0.03663976
0.03699646
0.03744205
0.03793689
0.03650348
0.03581231
0.03528707
0.03492353
0.03465253
0.03443668
0.03425563
0.03409819
0.03395905
0.03383667
0.03373204
0.03364779
0.03358793
0.03355641
0.03355558
0.03358721
0.03365164
0.0337477
0.03387292
0.03402394
0.03419718
0.03438955
0.03459925
0.03482682
0.03507648
0.03535845
0.03569263
0.03611701
0.03670338
0.03745366
0.03610677
0.03527856
0.03463155
0.03418661
0.03386349
0.03361308
0.03340694
0.03322908
0.03307164
0.03293203
0.03281106
0.03271183
0.03263922
0.03259776
0.03259045
0.03261945
0.03268514
0.03278603
0.03291909
0.03308026
0.03326531
0.03347079
0.03369514
0.03394007
0.0342125
0.03452768
0.03491376
0.03542042
0.03613047
0.03702042
0.03579873
0.03490394
0.03417508
0.03366043
0.03328226
0.03298834
0.03274605
0.0325361
0.03234868
0.03218049
0.0320325
0.03190879
0.03181574
0.03175878
0.03174217
0.03176868
0.03183875
0.03195042
0.03209969
0.03228131
0.03248983
0.03272095
0.03297291
0.03324816
0.03355554
0.03391351
0.0343542
0.03493032
0.03572245
0.03667974
0.03554617
0.03461925
0.03383801
0.03326801
0.03283707
0.0324947
0.03220759
0.03195506
0.03172629
0.03151782
0.03133139
0.03117277
0.03105059
0.03097181
0.03094252
0.03096647
0.03104424
0.03117314
0.0313477
0.03156074
0.03180488
0.03207423
0.03236615
0.03268305
0.03303452
0.03344019
0.03393272
0.03456331
0.03540746
0.03639684
0.03532951
0.03438735
0.03357179
0.03295808
0.03247844
0.03208528
0.03174663
0.03144209
0.03116097
0.03090037
0.03066334
0.03045895
0.03029779
0.03018996
0.03014396
0.03016502
0.030254
0.03040715
0.03061683
0.03087304
0.03116545
0.03148566
0.03182927
0.03219768
0.03260004
0.03305551
0.03359561
0.03426901
0.03514704
0.03615121
0.03513795
0.03418828
0.03334838
0.03269868
0.03217403
0.0317291
0.03133368
0.03096869
0.03062468
0.03030006
0.03000002
0.0297384
0.0295279
0.0293829
0.02931537
0.0293328
0.02943656
0.0296215
0.02987688
0.03018869
0.03054246
0.03092616
0.03133256
0.03176108
0.03221947
0.03272573
0.03330993
0.03401873
0.03492075
0.03593185
0.03496527
0.03401125
0.03315213
0.03247096
0.03190387
0.03140676
0.03095064
0.03051803
0.03010151
0.02970133
0.02932824
0.02899777
0.02872752
0.02853667
0.02844182
0.02845394
0.02857559
0.02879981
0.02911167
0.02949169
0.02991978
0.03037902
0.03085829
0.03135418
0.03187263
0.03243046
0.03305672
0.03379679
0.03471787
0.03573278
0.03480859
0.03385126
0.03297545
0.03226543
0.03165764
0.03110837
0.03058917
0.03008377
0.0295873
0.02910311
0.02864948
0.02823937
0.02789729
0.02765
0.02752107
0.02752615
0.02766894
0.02794011
0.02831946
0.02878049
0.02929427
0.02983921
0.03039942
0.03096819
0.03154961
0.03215963
0.03282678
0.03359595
0.03453381
0.03555161
0.03466742
0.03370698
0.03281593
0.03207893
0.03143212
0.03083159
0.03024885
0.02966854
0.02908772
0.02851819
0.02797499
0.02747796
0.02705649
0.02674668
0.02658116
0.02658132
0.02675122
0.02707604
0.02752592
0.02806791
0.0286737
0.02931191
0.02995817
0.03060292
0.03124858
0.03191063
0.03261757
0.03341437
0.03436784
0.03538859
0.03454292
0.03357946
0.03267445
0.03191252
0.03122915
0.03057981
0.02993564
0.02928199
0.02861749
0.02796431
0.02732725
0.02672922
0.02621376
0.02584359
0.02566373
0.02566009
0.02583717
0.02621171
0.02674887
0.02738468
0.02808244
0.02881083
0.02954468
0.03026531
0.03097402
0.03168626
0.03243097
0.03325368
0.03422181
0.03524581
0.03443706
0.03347125
0.03255395
0.03176997
0.03105397
0.0303606
0.02966032
0.02893889
0.02819916
0.02746202
0.02672495
0.02602234
0.02548356
0.02510279
0.02489602
0.02488758
0.02508455
0.02546784
0.0260137
0.02675049
0.02754348
0.02836192
0.02917595
0.02996773
0.0307348
0.03149287
0.03227172
0.03311772
0.03409915
0.03512663
0.03435507
0.03338597
0.03245841
0.03165637
0.03091355
0.03018369
0.0294365
0.02865712
0.02785473
0.02703896
0.02621075
0.02548446
0.02490585
0.02447682
0.02424034
0.02422671
0.02444556
0.02487182
0.02546286
0.02620809
0.02708767
0.02798844
0.02887411
0.02972583
0.03054224
0.03133871
0.03214601
0.03301146
0.03400416
0.03503519
0.03429664
0.03332631
0.03239167
0.03157685
0.03081492
0.03005891
0.0292779
0.02845541
0.02760631
0.02673051
0.02584218
0.02510879
0.02448355
0.02401554
0.02375519
0.02373685
0.02397258
0.02443362
0.02506999
0.02582765
0.02675473
0.02771679
0.02865845
0.02955536
0.03040772
0.03123208
0.03206033
0.03293991
0.03394095
0.03497532
0.03426663
0.03329529
0.03235695
0.03153554
0.03076374
0.02999415
0.02919543
0.0283497
0.0274753
0.02656661
0.02566678
0.02490982
0.02425828
0.02376873
0.0234947
0.0234732
0.02371825
0.024199
0.02486113
0.02564212
0.02657799
0.02757278
0.02854643
0.02946779
0.03033928
0.03117826
0.03201733
0.03290434
0.03390991
0.03494632
0.034266
0.03329476
0.03235651
0.03153519
0.03076347
0.02999399
0.02919538
0.02834977
0.02747548
0.0265669
0.02566717
0.02491035
0.02425897
0.02376959
0.02349574
0.02347444
0.02371968
0.02420062
0.02486293
0.02564412
0.02658024
0.02757518
0.02854894
0.02947048
0.03034212
0.0311813
0.03202058
0.03290783
0.0339137
0.03495049
0.03429466
0.03332473
0.03239036
0.03157579
0.03081414
0.03005844
0.02927777
0.02845565
0.02760687
0.02673141
0.02584337
0.02511039
0.02448561
0.02401809
0.02375826
0.02374048
0.02397678
0.02443838
0.02507528
0.02583353
0.02676133
0.02772385
0.02866594
0.02956341
0.03041634
0.0312413
0.03207023
0.03295055
0.03395249
0.0349881
0.03435129
0.03338334
0.03245628
0.03165466
0.03091229
0.03018295
0.02943633
0.02865757
0.02785573
0.02704052
0.02621281
0.0254872
0.02490934
0.02448111
0.02424547
0.02423273
0.02445249
0.02487964
0.02547157
0.02621789
0.02709845
0.02800002
0.02888648
0.02973922
0.03055684
0.03135441
0.03216325
0.03303001
0.03402417
0.03505744
0.03443424
0.03346819
0.0325512
0.0317677
0.0310523
0.03035963
0.02966016
0.02893959
0.0282007
0.02746432
0.02672785
0.02602634
0.02548857
0.0251089
0.02490326
0.02489602
0.02509421
0.0254787
0.026026
0.02676412
0.02755832
0.02837781
0.02919293
0.02998601
0.03075458
0.03151403
0.03229471
0.03314228
0.03412544
0.03515539
0.03453886
0.03357564
0.03267108
0.03190976
0.03122714
0.03057871
0.02993557
0.02928302
0.02861966
0.02796757
0.02733162
0.02673484
0.02622063
0.0258516
0.02567317
0.025671
0.02584958
0.0262259
0.02676467
0.02740202
0.0281012
0.02883081
0.02956597
0.03028801
0.03099818
0.03171186
0.03245809
0.03328234
0.03425215
0.03527809
0.03466249
0.03370246
0.03281201
0.03207576
0.03142987
0.03083041
0.03024892
0.02966994
0.02909056
0.0285224
0.02798065
0.02748517
0.02706525
0.026757
0.02659314
0.02659503
0.02676674
0.02709341
0.02754507
0.02808874
0.02869603
0.0293358
0.02998365
0.03062998
0.03127724
0.03194087
0.03264938
0.03344775
0.03440288
0.03542533
0.03480296
0.03384615
0.03297107
0.03226195
0.03165524
0.03110722
0.03058944
0.03008559
0.02959078
0.02910829
0.02865639
0.02824804
0.02790778
0.02766233
0.02753528
0.02754232
0.02768711
0.02796027
0.02834154
0.02880445
0.02932011
0.02986685
0.03042888
0.03099948
0.03158272
0.03219451
0.03286337
0.0336342
0.03457371
0.03559318
0.03495907
0.03400567
0.03314738
0.03246726
0.03190141
0.03140572
0.03095118
0.03052029
0.03010561
0.02970739
0.02933628
0.02900785
0.02873966
0.02855089
0.02845814
0.0284724
0.02859622
0.02882258
0.02913657
0.02951868
0.02994884
0.03041017
0.03089153
0.03138951
0.03191003
0.03246984
0.03309796
0.03383979
0.03476252
0.03577913
0.03513129
0.03418232
0.03334337
0.03269485
0.03217159
0.03172825
0.03133456
0.03097144
0.03062943
0.03030693
0.03000908
0.0297497
0.02954146
0.02939875
0.02933351
0.02935325
0.02945934
0.0296466
0.0299043
0.03021842
0.03057453
0.03096059
0.03136936
0.03180023
0.03226091
0.03276935
0.03335561
0.03406634
0.03497023
0.03598316
0.03532249
0.0343811
0.0335666
0.0329542
0.0324761
0.03208467
0.03174791
0.03144539
0.03116641
0.03090805
0.03067337
0.03047134
0.0303126
0.03020721
0.03016367
0.03018721
0.03027867
0.03043433
0.03064654
0.03090531
0.03120031
0.03152315
0.03186938
0.03224037
0.03264522
0.03310306
0.03364539
0.03432089
0.03520098
0.03620711
0.03553887
0.03461278
0.03383269
0.03326412
0.03283486
0.03249437
0.03220931
0.03195894
0.03173245
0.03152634
0.03134234
0.03118621
0.03106656
0.03099034
0.03096365
0.03099021
0.03107064
0.03120223
0.03137954
0.03159537
0.03184234
0.03211455
0.03240931
0.03272898
0.03308313
0.03349133
0.03398622
0.03461904
0.03546538
0.03645683
0.03579122
0.03489731
0.03416967
0.03365655
0.03328018
0.03298829
0.0327482
0.03254057
0.03235556
0.03218984
0.0320444
0.03192328
0.03183284
0.03177855
0.03176465
0.03179391
0.03186678
0.03198131
0.03213352
0.03231812
0.03252967
0.03276384
0.03301883
0.03329703
0.03360723
0.03396785
0.03441102
0.03498945
0.03578382
0.03674325
0.03609912
0.03527179
0.03462604
0.03418271
0.0338615
0.03361326
0.03340946
0.03323407
0.03307919
0.03294218
0.03282386
0.03272733
0.03265744
0.03261874
0.03261425
0.03264612
0.03271474
0.03281864
0.03295478
0.03311911
0.03330735
0.03351604
0.03374357
0.03399159
0.03426697
0.0345849
0.03497352
0.03548251
0.03619478
0.03708683
0.0364957
0.03580539
0.03528142
0.03491954
0.03465056
0.034437
0.03425844
0.03410362
0.03396717
0.03384754
0.03374569
0.03366425
0.03360723
0.0335786
0.03358069
0.03361531
0.03368281
0.03378201
0.03391043
0.03406473
0.0342413
0.03443701
0.03465003
0.03488081
0.03513353
0.03541834
0.03575508
0.03618174
0.03677019
0.03752238
0.03694636
0.03650383
0.03611579
0.03581994
0.03558329
0.03538577
0.03521598
0.03506715
0.03493596
0.03482166
0.03472543
0.03464966
0.03459767
0.03457328
0.03457881
0.0346159
0.03468487
0.03478469
0.03491312
0.03506715
0.03524342
0.0354389
0.03565147
0.03588061
0.03612815
0.03639941
0.0367046
0.03706352
0.03751097
0.03800725
0.01307
0.01301133
0.01294938
0.01289335
0.01284248
0.01279558
0.01275197
0.01271142
0.01267413
0.01264069
0.01261197
0.01258906
0.01257315
0.0125654
0.01256653
0.012577
0.01259684
0.01262569
0.01266279
0.01270709
0.01275738
0.0128124
0.01287099
0.01293222
0.01299543
0.01306037
0.0131272
0.01319665
0.01326903
0.0133343
0.01301127
0.01291237
0.01282105
0.01274815
0.01268803
0.01263596
0.0125892
0.01254644
0.01250734
0.01247224
0.01244194
0.01241754
0.01240031
0.01239148
0.01239182
0.01240181
0.01242151
0.01245051
0.01248799
0.01253285
0.01258379
0.01263958
0.01269914
0.0127618
0.0128275
0.01289711
0.01297297
0.01305952
0.01316218
0.01326923
0.01294815
0.01281992
0.01269917
0.01260494
0.01253047
0.01246854
0.01241453
0.01236593
0.01232173
0.01228196
0.01224736
0.0122191
0.01219862
0.01218731
0.01218608
0.01219549
0.01221562
0.01224598
0.01228563
0.01233329
0.01238755
0.01244709
0.01251093
0.01257872
0.0126511
0.0127302
0.01282032
0.01292844
0.01306126
0.01319863
0.01288963
0.01274462
0.01260259
0.01248961
0.01240008
0.0123261
0.01226207
0.01220466
0.01215238
0.01210504
0.01206341
0.01202886
0.01200316
0.01198794
0.01198438
0.01199319
0.01201446
0.0120476
0.01209144
0.01214441
0.01220484
0.0122712
0.01234251
0.01241861
0.01250063
0.01259152
0.01269659
0.01282355
0.01297802
0.01313266
0.01283505
0.01268095
0.01252465
0.01239664
0.01229293
0.01220597
0.01212994
0.01206119
0.01199801
0.0119402
0.0118887
0.01184527
0.01181217
0.01179145
0.0117847
0.01179286
0.01181607
0.01185356
0.0119038
0.01196478
0.01203435
0.01211062
0.01219239
0.0122795
0.01237326
0.01247692
0.012596
0.01273797
0.01290686
0.01307076
0.0127834
0.01262435
0.01245836
0.01231837
0.01220169
0.01210138
0.01201186
0.01192955
0.01185282
0.01178163
0.01171731
0.01166224
0.01161936
0.01159136
0.01158041
0.01158783
0.01161382
0.01165736
0.0117164
0.01178825
0.01187005
0.01195931
0.01205437
0.01215481
0.01226185
0.01237865
0.01251053
0.01266441
0.01284304
0.01301192
0.01273421
0.01257228
0.01239928
0.0122494
0.01212076
0.01200698
0.01190282
0.01180503
0.01171223
0.01162482
0.01154469
0.01147513
0.01141994
0.01138268
0.01136636
0.01137286
0.01140249
0.01145389
0.01152429
0.01161002
0.0117072
0.01181247
0.01192347
0.01203928
0.01216079
0.01229089
0.0124346
0.01259832
0.01278397
0.01295569
0.0126874
0.01252358
0.01234506
0.01218659
0.01204673
0.01191944
0.0117998
0.01168488
0.0115738
0.01146751
0.01136886
0.01128203
0.01121192
0.01116329
0.01114029
0.01114556
0.01117964
0.01124073
0.01132507
0.01142769
0.01154335
0.01166749
0.01179681
0.0119297
0.01206661
0.01221015
0.01236504
0.01253736
0.01272856
0.01290212
0.0126433
0.01247803
0.0122948
0.01212856
0.01197804
0.01183732
0.01170168
0.0115685
0.01143743
0.01131022
0.01119076
0.01108415
0.01099657
0.01093451
0.01090363
0.01090742
0.01094663
0.01101904
0.01111966
0.01124188
0.01137869
0.01152411
0.01167366
0.01182493
0.0119779
0.01213493
0.01230057
0.01248075
0.01267673
0.0128517
0.01260256
0.01243603
0.01224861
0.01207522
0.01191458
0.01176075
0.01160909
0.01145718
0.01130522
0.01115603
0.01101396
0.01088573
0.01077926
0.01070324
0.01066495
0.01066749
0.01071171
0.01079582
0.01091356
0.0110565
0.01121607
0.01138436
0.01155533
0.01172568
0.01189493
0.01206529
0.01224126
0.01242877
0.01262907
0.01280529
0.01256608
0.01239843
0.01220724
0.01202734
0.01185731
0.01169111
0.01152402
0.01135381
0.01118112
0.01100979
0.01084453
0.01069377
0.0105703
0.01048666
0.01045006
0.01045195
0.01049301
0.01058166
0.01071441
0.01087866
0.01106126
0.01125242
0.01144493
0.0116342
0.01181932
0.01200243
0.0121881
0.01238238
0.01258662
0.01276404
0.0125349
0.01236629
0.01217184
0.01198625
0.01180791
0.01163061
0.01144951
0.01126248
0.01107066
0.01087793
0.01069058
0.01052342
0.01040686
0.0103259
0.01028441
0.01028531
0.01032964
0.01041551
0.01053805
0.01071715
0.01092129
0.01113441
0.01134705
0.01155393
0.01175365
0.01194831
0.01214267
0.01234294
0.01255069
0.01272924
0.01251034
0.01234084
0.01214371
0.01195349
0.01176837
0.01158192
0.01138915
0.01118789
0.01097987
0.01076862
0.01056523
0.01040485
0.01028238
0.01019489
0.01014836
0.01014824
0.01019597
0.01028761
0.01041717
0.01058615
0.01080515
0.01103701
0.01126712
0.01148897
0.01170096
0.01190525
0.01210679
0.01231201
0.01252267
0.01270223
0.01249308
0.01232304
0.01212406
0.01193058
0.01174064
0.01154766
0.01134647
0.01113477
0.0109148
0.01069061
0.01047944
0.01032263
0.01019404
0.01009992
0.01004894
0.01004789
0.01009863
0.01019617
0.01033205
0.01049939
0.01072245
0.0109672
0.01121036
0.01144328
0.01166421
0.01187547
0.01208219
0.01229097
0.01250376
0.01268415
0.01248413
0.01231381
0.01211387
0.01191872
0.01172629
0.0115299
0.01132431
0.01110708
0.01088082
0.01065046
0.01044137
0.01028052
0.01014762
0.01004953
0.009995919
0.009994291
0.01004681
0.01014797
0.01028817
0.01045969
0.01067991
0.01093091
0.01118113
0.01142
0.01164568
0.0118606
0.01207004
0.01228069
0.01249463
0.01267549
0.01248396
0.01231365
0.01211374
0.01191861
0.01172621
0.01152987
0.01132431
0.01110712
0.01088091
0.0106506
0.01044156
0.01028076
0.01014792
0.01004989
0.009996345
0.009994786
0.01004737
0.0101486
0.01028886
0.01046044
0.01068074
0.01093179
0.01118206
0.01142097
0.01164669
0.01186166
0.01207115
0.01228186
0.01249586
0.01267679
0.01249254
0.01232258
0.01212367
0.01193027
0.01174043
0.01154755
0.01134648
0.01113491
0.01091508
0.01069103
0.01048
0.01032335
0.01019493
0.01010099
0.01005021
0.01004936
0.0101003
0.01019804
0.0103341
0.01050161
0.01072491
0.01096981
0.01121311
0.01144617
0.01166725
0.01187864
0.01208552
0.01229447
0.01250746
0.01268806
0.01250944
0.01234008
0.01214308
0.01195299
0.01176802
0.01158175
0.01138918
0.01118814
0.01098035
0.01076934
0.01056618
0.01040607
0.01028387
0.01019668
0.01015047
0.01015066
0.01019873
0.01029069
0.01042057
0.0105899
0.01080919
0.01104131
0.01127165
0.01149374
0.01170599
0.01191053
0.01211235
0.01231785
0.01252883
0.01270877
0.01253393
0.01236535
0.01217101
0.01198558
0.01180745
0.01163039
0.01144958
0.01126286
0.01107136
0.01087896
0.01069194
0.01052516
0.01040898
0.01032841
0.01028735
0.01028868
0.01033346
0.01041978
0.0105428
0.01072233
0.01092686
0.01114032
0.01135328
0.01156049
0.01176055
0.01195554
0.01215026
0.01235088
0.01255901
0.01273798
0.01256484
0.01239727
0.01220623
0.01202654
0.01185676
0.01169087
0.01152414
0.01135433
0.01118207
0.01101117
0.01084636
0.01069607
0.01057309
0.01048989
0.01045381
0.01045623
0.01049784
0.01058714
0.01072045
0.01088521
0.01106828
0.01125986
0.01145276
0.01164243
0.01182794
0.01201143
0.01219748
0.01239213
0.01259676
0.01277455
0.01260108
0.01243467
0.01224744
0.0120743
0.01191397
0.01176052
0.01160928
0.01145786
0.01130641
0.01115776
0.01101625
0.01088861
0.01078273
0.01070731
0.01066963
0.01067281
0.01071768
0.01080245
0.01092082
0.01106434
0.01122443
0.01139323
0.01156468
0.0117355
0.01190521
0.012076
0.0122524
0.01244031
0.01264101
0.01281757
0.01264163
0.0124765
0.0122935
0.01212756
0.0119774
0.01183711
0.01170197
0.01156934
0.01143887
0.01131229
0.01119348
0.01108755
0.01100066
0.0109393
0.01090914
0.01091365
0.01095358
0.0110267
0.011128
0.01125087
0.0113883
0.01153431
0.01168443
0.01183626
0.01198976
0.01214729
0.01231341
0.01249403
0.01269042
0.01286573
0.01268558
0.01252192
0.01234366
0.01218553
0.01204609
0.01191928
0.0118002
0.01168589
0.01157548
0.0114699
0.01137198
0.01128591
0.01121657
0.01116873
0.01114652
0.01115258
0.01118744
0.01124931
0.01133441
0.01143775
0.01155411
0.01167893
0.0118089
0.01194243
0.01207995
0.01222407
0.01237949
0.01255229
0.01274393
0.01291784
0.01273227
0.01257052
0.01239781
0.01224831
0.01212014
0.0120069
0.01190335
0.01180622
0.01171415
0.0116275
0.01154818
0.01147944
0.01142509
0.01138868
0.01137321
0.01138056
0.01141104
0.01146329
0.01153451
0.01162103
0.01171901
0.01182504
0.01193678
0.01205332
0.01217551
0.01230626
0.01245055
0.01261481
0.01280094
0.01297303
0.01278137
0.01262252
0.01245685
0.01231728
0.01220111
0.01210139
0.01201252
0.01193094
0.01185497
0.0117846
0.01172112
0.01166694
0.01162495
0.01159785
0.01158781
0.01159614
0.01162303
0.01166747
0.0117274
0.01180013
0.0118828
0.01197291
0.0120688
0.01217004
0.01227783
0.01239533
0.01252786
0.01268232
0.01286147
0.01303076
0.01283296
0.01267907
0.01252312
0.01239556
0.01229241
0.01220608
0.01213075
0.01206276
0.0120004
0.01194344
0.01189283
0.01185032
0.01181815
0.01179838
0.01179258
0.0118017
0.01182587
0.01186431
0.01191551
0.01197744
0.01204795
0.01212515
0.01220782
0.01229579
0.01239037
0.01249478
0.01261455
0.01275714
0.01292659
0.01309091
0.0128875
0.01274271
0.01260105
0.01248855
0.0123996
0.01232631
0.01226302
0.01220642
0.01215499
0.01210854
0.01206784
0.01203424
0.0120095
0.01199526
0.01199269
0.0120025
0.01202478
0.01205893
0.01210378
0.01215777
0.0122192
0.01228655
0.01235882
0.01243584
0.01251873
0.01261042
0.01271621
0.01284382
0.01299885
0.01315393
0.012946
0.012818
0.01269762
0.0126039
0.01253004
0.01246882
0.0124156
0.01236785
0.01232454
0.0122857
0.01225205
0.01222478
0.0122053
0.012195
0.01219479
0.01220524
0.01222641
0.01225783
0.01229854
0.01234726
0.01240258
0.01246316
0.01252802
0.01259678
0.01267007
0.01275
0.01284086
0.01294963
0.013083
0.0132208
0.01300911
0.01291042
0.01281949
0.0127471
0.01268762
0.0126363
0.01259036
0.01254848
0.01251032
0.01247618
0.01244686
0.01242348
0.01240728
0.01239949
0.01240089
0.01241195
0.01243273
0.01246281
0.0125014
0.01254735
0.0125994
0.01265627
0.01271689
0.01278055
0.01284718
0.01291765
0.01299426
0.01308145
0.01318462
0.01329205
0.01306782
0.01300935
0.01294778
0.01289227
0.01284206
0.01279593
0.01275317
0.01271353
0.01267721
0.01264476
0.01261706
0.01259519
0.01258033
0.01257365
0.01257586
0.01258742
0.01260837
0.01263834
0.01267656
0.01272199
0.01277341
0.01282954
0.01288921
0.01295147
0.01301564
0.01308145
0.01314904
0.0132191
0.01329196
0.01335752
0.008447672
0.008432304
0.008412646
0.008392188
0.008371874
0.008352056
0.008332966
0.008314869
0.00829811
0.00828312
0.008270404
0.008260504
0.008253963
0.008251276
0.008252762
0.008258592
0.00826876
0.008283073
0.008301168
0.00832254
0.008346591
0.008372675
0.008400141
0.008428372
0.008456805
0.008484936
0.00851228
0.008538248
0.008561716
0.008579087
0.008432202
0.008408636
0.008380915
0.008354671
0.008330591
0.008308354
0.008287654
0.008268405
0.00825075
0.008235012
0.008221643
0.008211175
0.008204156
0.008201095
0.008202325
0.008208024
0.008218189
0.00823262
0.008250938
0.008272627
0.008297085
0.008323681
0.008351823
0.008381007
0.008410885
0.008441318
0.00847239
0.00850422
0.00853597
0.008561834
0.008411951
0.008380346
0.008342903
0.008308535
0.00827842
0.00825181
0.008227863
0.00820608
0.008186333
0.008168792
0.008153844
0.008142012
0.00813387
0.008129966
0.008130667
0.008136176
0.008146492
0.008161397
0.00818048
0.00820319
0.008228901
0.008257
0.008286965
0.008318452
0.008351397
0.008386092
0.008423183
0.008463248
0.008504967
0.00853914
0.008390256
0.008352911
0.008307372
0.008265235
0.008228585
0.008196683
0.008168415
0.008142991
0.00812007
0.008099701
0.008082229
0.0080682
0.008058254
0.008053013
0.008052913
0.008058201
0.008068886
0.008084717
0.008105221
0.008129772
0.008157689
0.008188335
0.00822123
0.008256158
0.00829327
0.008333162
0.008376768
0.00842468
0.008474672
0.008514759
0.008368053
0.008327002
0.00827548
0.008226831
0.008184013
0.008146551
0.008113305
0.008083372
0.008056306
0.008032106
0.008011133
0.007994016
0.007981516
0.007974387
0.00797318
0.007978223
0.007989538
0.008006822
0.008029494
0.008056799
0.008087932
0.008122176
0.008159025
0.008198306
0.008240271
0.008285636
0.008335372
0.00838983
0.008445908
0.008489794
0.008345754
0.008302357
0.008246534
0.008192638
0.008144277
0.008101297
0.008062679
0.008027547
0.007995463
0.007966462
0.007940994
0.007919844
0.007903971
0.007894332
0.007891664
0.007896423
0.007908657
0.007927981
0.007953644
0.00798468
0.008020077
0.008058949
0.008100681
0.008145046
0.008192282
0.008243084
0.008298316
0.008358027
0.00841846
0.008464731
0.008323673
0.008278748
0.008219771
0.008161622
0.008108322
0.008059984
0.008015759
0.00797488
0.007937005
0.007902282
0.007871333
0.007845174
0.007825053
0.007812215
0.00780768
0.007812092
0.007825546
0.007847538
0.00787707
0.007912858
0.007953575
0.007998067
0.008045518
0.008095557
0.008148326
0.008204418
0.00826455
0.008328513
0.008392126
0.008439937
0.008302149
0.008256165
0.008194768
0.008133073
0.008075327
0.008021826
0.00797187
0.007924826
0.007880502
0.00783923
0.007801877
0.00776975
0.007744488
0.007727732
0.007720891
0.007724871
0.00773983
0.007765118
0.007799399
0.007840953
0.007888011
0.007939043
0.00799294
0.008049125
0.00810759
0.008168812
0.008233373
0.008300888
0.008366941
0.008415811
0.00828159
0.008234812
0.00817146
0.008106717
0.008044924
0.007986473
0.007930765
0.007877294
0.007826038
0.007777558
0.007733011
0.007694065
0.007662869
0.007641587
0.007632106
0.007635586
0.007652257
0.007681335
0.007721101
0.007769294
0.007823569
0.007881911
0.007942831
0.008005495
0.008069734
0.00813592
0.008204548
0.008275138
0.008343172
0.008392833
0.008262471
0.008215058
0.008150062
0.008082648
0.008017162
0.007954024
0.007892683
0.007832725
0.007774293
0.007718214
0.007665911
0.00761962
0.007582204
0.007556418
0.007544491
0.007547508
0.007565737
0.007598527
0.007643941
0.007699183
0.007761214
0.007827361
0.007895647
0.007964937
0.008034906
0.008105853
0.008178233
0.008251546
0.008321263
0.008371565
0.008245319
0.008197381
0.008130985
0.008061235
0.00799243
0.007924963
0.007858288
0.007792045
0.007726518
0.007662786
0.007602648
0.00754929
0.007506832
0.00747836
0.007465526
0.00746819
0.007486613
0.007521269
0.007571048
0.007632978
0.007702755
0.007776751
0.007852405
0.007928208
0.008003679
0.008079081
0.008154879
0.008230605
0.008301779
0.008352626
0.008230685
0.008182316
0.008114751
0.008043016
0.007971339
0.007900052
0.007828576
0.007756576
0.00768446
0.007613518
0.00754638
0.00748833
0.007445834
0.007419209
0.007406456
0.007408826
0.007426648
0.007459109
0.007508025
0.007574123
0.007650687
0.007732043
0.007814605
0.007896449
0.007976938
0.008056322
0.008135118
0.008212926
0.008285341
0.008336658
0.008219123
0.008170406
0.008101916
0.008028602
0.007954611
0.007880202
0.007804742
0.007727891
0.007650195
0.007573241
0.007501253
0.007443212
0.007401971
0.007373628
0.007359669
0.00736171
0.007380187
0.00741403
0.007461861
0.007527114
0.007608138
0.007695567
0.007784048
0.007871031
0.00795573
0.00803841
0.008119653
0.008199144
0.008272563
0.00832427
0.00821106
0.008162114
0.008092987
0.008018574
0.007942954
0.007866322
0.007787991
0.007707602
0.007625841
0.007544729
0.007470263
0.007414289
0.007371454
0.007341364
0.007326144
0.007327896
0.007347167
0.007382518
0.007431876
0.007495136
0.007578157
0.007669724
0.007762551
0.007853323
0.007941092
0.008026147
0.008109142
0.00818983
0.008263969
0.008315968
0.008206876
0.008157815
0.008088365
0.008013393
0.007936938
0.007859157
0.007779328
0.007697079
0.007613204
0.007530097
0.007455043
0.007399428
0.00735564
0.007324456
0.007308464
0.007310056
0.007329852
0.007366194
0.007416507
0.007479421
0.007562913
0.007656511
0.007751649
0.007844448
0.00793385
0.00802016
0.008104076
0.008185396
0.00825992
0.00831208
0.008206777
0.008157724
0.008088288
0.008013332
0.007936897
0.007859141
0.007779339
0.007697119
0.007613277
0.007530204
0.007455186
0.00739961
0.007355863
0.007324723
0.007308775
0.007310411
0.007330251
0.007366633
0.007416984
0.007479933
0.007563459
0.007657083
0.007752243
0.007845063
0.007934484
0.008020814
0.008104749
0.00818609
0.008260637
0.008312815
0.008210767
0.008161846
0.008092758
0.008018394
0.007942834
0.007866274
0.007788024
0.007707725
0.007626061
0.007545052
0.007470695
0.007414837
0.007372124
0.007342161
0.007327072
0.007328956
0.007348354
0.007383824
0.007433294
0.007496662
0.007579782
0.007671428
0.007764321
0.007855155
0.007942984
0.008028099
0.008111153
0.008191905
0.00826611
0.008318165
0.008218649
0.008169975
0.008101547
0.008028313
0.00795442
0.007880128
0.007804803
0.007728102
0.007650566
0.007573784
0.007501977
0.007444127
0.007403085
0.007374949
0.007361203
0.007363456
0.00738214
0.00741618
0.007464195
0.007529635
0.007610812
0.007698369
0.007786963
0.007874051
0.007958853
0.008041633
0.008122978
0.008202571
0.008276097
0.008327897
0.008230081
0.008181751
0.00811426
0.008042632
0.007971089
0.007899963
0.007828674
0.007756882
0.00768499
0.007614288
0.0075474
0.007489615
0.007447389
0.007421045
0.00740858
0.007411237
0.00742934
0.007462071
0.00751126
0.007577596
0.007654364
0.007735895
0.007818615
0.007900608
0.007981238
0.008060759
0.008139691
0.008217633
0.008290181
0.008341608
0.008244578
0.00819669
0.008130388
0.00806077
0.007992135
0.007924872
0.007858432
0.007792452
0.007727212
0.007663786
0.00760397
0.007550947
0.007508832
0.007480706
0.007468228
0.007471249
0.007490021
0.007525027
0.007575127
0.007637344
0.007707373
0.007781592
0.00785745
0.007933442
0.008009093
0.008084665
0.008160627
0.008236509
0.008307827
0.008358783
0.008261608
0.008214258
0.008149377
0.008082122
0.008016839
0.007953944
0.007892884
0.007833241
0.007775153
0.007719441
0.007667524
0.007621636
0.007584632
0.007559262
0.007547756
0.007551192
0.007569831
0.007603017
0.007648798
0.007704373
0.007766704
0.007833124
0.007901661
0.007971186
0.008041374
0.008112526
0.008185099
0.008258588
0.008328461
0.008378871
0.00828063
0.008233926
0.008170707
0.008106149
0.00804459
0.007986419
0.007931033
0.007877923
0.007827061
0.007779002
0.007734899
0.007696414
0.007665689
0.007644883
0.00763588
0.007639832
0.007656963
0.007686481
0.007726659
0.007775233
0.00782986
0.007888526
0.007949747
0.008012691
0.008077192
0.008143622
0.008212471
0.008283261
0.008351464
0.008401238
0.008301118
0.008255218
0.008193972
0.008132484
0.008075001
0.008021812
0.007972214
0.00792557
0.007881684
0.00784088
0.00780402
0.007772404
0.007747663
0.007731432
0.007725117
0.007729614
0.007745077
0.007770848
0.007805586
0.007847569
0.007895029
0.007946437
0.008000686
0.008057199
0.00811597
0.008177472
0.008242287
0.008310026
0.008376265
0.008425256
0.008322597
0.008277764
0.008218953
0.008161032
0.008108019
0.008060022
0.008016187
0.007975743
0.007938341
0.007904124
0.007873708
0.007848101
0.007828543
0.007816271
0.007812301
0.00781727
0.007831267
0.007853784
0.007883817
0.007920081
0.007961249
0.008006168
0.008054019
0.008104435
0.008157551
0.008213961
0.008274378
0.008338589
0.008402407
0.008450351
0.008344656
0.008301359
0.008245713
0.008192063
0.008144012
0.008101397
0.008063197
0.008028528
0.007996948
0.007968484
0.007943581
0.007923015
0.007907738
0.007898699
0.007896631
0.007901981
0.007914795
0.007934681
0.007960887
0.007992444
0.008028339
0.008067685
0.008109864
0.008154648
0.008202271
0.008253424
0.008308971
0.008368954
0.008429609
0.008476025
0.008366951
0.008326006
0.008274671
0.008226283
0.008183793
0.008146718
0.008113914
0.008084469
0.008057932
0.008034296
0.008013914
0.007997406
0.00798553
0.007979028
0.007978448
0.007984112
0.007996039
0.008013921
0.008037174
0.008065041
0.008096714
0.008131474
0.008168812
0.00820855
0.008250937
0.008296683
0.008346758
0.008401507
0.008457822
0.00850186
0.008389165
0.008351929
0.008306585
0.008264719
0.008228411
0.008196915
0.008169109
0.008144196
0.008121827
0.008102044
0.008085183
0.008071786
0.008062485
0.008057894
0.008058445
0.00806438
0.008075705