/*--------------------------------*- C++ -*----------------------------------*\
| =========                 |                                                 |
| \\      /  F ield         | OpenFOAM: The Open Source CFD Toolbox           |
|  \\    /   O peration     | Version:  2506                                  |
|   \\  /    A nd           | Website:  www.openfoam.com                      |
|    \\/     M anipulation  |                                                 |
\*---------------------------------------------------------------------------*/
FoamFile
{
    version     2.0;
    format      ascii;
    arch        "LSB;label=32;scalar=64";
    class       volScalarField;
    location    "2500/air";
    object      k;
}
// * * * * * * * * * * * * * * * * * * * * * * * * * * * * * * * * * * * * * //

dimensions      [0 2 -2 0 0 0 0];

internalField   nonuniform List<scalar> 
33752
(
0.05801775
0.05755274
0.05714283
0.05682861
0.05657603
0.05636431
0.05618168
0.05602112
0.05587923
0.05575527
0.05565051
0.05556751
0.05550979
0.05548138
0.05548475
0.05552158
0.05559215
0.05569529
0.05582855
0.05598865
0.056172
0.05637534
0.05659643
0.05683473
0.0570922
0.05737439
0.05769195
0.05806537
0.0585304
0.0590448
0.0575448
0.05681604
0.05625913
0.0558722
0.0555831
0.05535256
0.05515912
0.05499095
0.05484239
0.05471183
0.05460033
0.0545107
0.05444724
0.0544142
0.05441406
0.05444872
0.05451847
0.054622
0.05475656
0.05491849
0.0551039
0.0553094
0.05553303
0.05577532
0.05604068
0.05633985
0.05669365
0.05714167
0.05775815
0.05854242
0.05712691
0.05624997
0.05556019
0.05508354
0.05473637
0.05446693
0.05424499
0.05405351
0.05388407
0.05373388
0.05360384
0.0534973
0.05341953
0.05337547
0.05336836
0.0534005
0.05347224
0.05358192
0.05372614
0.05390042
0.05410012
0.05432143
0.05456263
0.05482551
0.0551174
0.05545443
0.05586627
0.05640486
0.05715577
0.05809027
0.0568014
0.05585103
0.055071
0.05451718
0.05410879
0.05379078
0.05352839
0.05330094
0.05309789
0.05291566
0.05275535
0.05262141
0.0525208
0.05245954
0.05244226
0.05247196
0.05254908
0.05267138
0.05283437
0.05303217
0.05325877
0.05350938
0.05378205
0.05407934
0.05441069
0.05479572
0.05526839
0.0558838
0.05672499
0.05773362
0.05653394
0.05554704
0.05470859
0.05409317
0.05362605
0.05325405
0.05294166
0.05266664
0.05241735
0.05219002
0.05198659
0.05181346
0.0516802
0.05159452
0.05156319
0.05159034
0.05167655
0.05181873
0.05201065
0.05224424
0.05251124
0.05280508
0.05312277
0.05346683
0.05384756
0.05428586
0.05481627
0.05549229
0.05639152
0.05743675
0.05630417
0.05529902
0.0544218
0.05375751
0.05323608
0.05280744
0.05243751
0.05210432
0.05179634
0.0515104
0.05124997
0.05102511
0.05084775
0.05072925
0.05067916
0.05070336
0.05080272
0.05097287
0.05120506
0.05148788
0.05180968
0.05216101
0.05253689
0.05293873
0.05337635
0.05387023
0.0544537
0.05517764
0.05611527
0.05717853
0.05610085
0.05508594
0.05418086
0.05347617
0.05290446
0.05241799
0.05198452
0.05158348
0.05120464
0.05084625
0.05051431
0.0502242
0.04999044
0.04982942
0.04975484
0.04977521
0.04989199
0.05009909
0.05038404
0.05073069
0.05112254
0.05154594
0.05199273
0.05246215
0.05296252
0.05351314
0.05414591
0.05490964
0.05587489
0.05694758
0.05591751
0.05489638
0.05396909
0.05322898
0.05260975
0.05206483
0.0515632
0.05108591
0.05062488
0.05018037
0.04976464
0.04939516
0.04909224
0.04887808
0.04877195
0.04878654
0.04892464
0.04917792
0.04952879
0.0499545
0.05043188
0.05094163
0.05147115
0.05201662
0.05258447
0.05319285
0.05387269
0.05467169
0.05565913
0.05673772
0.05575113
0.05472504
0.0537784
0.05300573
0.05234082
0.05173731
0.05116453
0.0506047
0.05005244
0.04951124
0.04900222
0.04853975
0.04815267
0.04787221
0.04772611
0.04773287
0.04789661
0.04820583
0.04863635
0.04915689
0.04973392
0.05034244
0.0509645
0.05159267
0.05223154
0.05289852
0.05362425
0.0544561
0.05546314
0.05654651
0.05560123
0.05457054
0.05360619
0.05280303
0.05209422
0.0514329
0.05078813
0.05014279
0.04949345
0.04885317
0.04823896
0.04767393
0.04719236
0.04683723
0.04664739
0.04664863
0.04684555
0.04721972
0.04773502
0.04835208
0.04903712
0.04975409
0.05047524
0.05119015
0.05190182
0.05262742
0.05339786
0.05426094
0.05528622
0.05637423
0.05546906
0.05443401
0.05345343
0.05262206
0.05187201
0.05115547
0.05044073
0.04971114
0.04896479
0.04822633
0.04750081
0.04681492
0.04621997
0.04579259
0.04558401
0.04558088
0.04578844
0.0462228
0.04684432
0.04757431
0.04836901
0.04919191
0.05001474
0.05081686
0.05160029
0.05238263
0.05319563
0.05408802
0.05513036
0.05622315
0.05535673
0.05431817
0.05332333
0.05246696
0.05168003
0.05091347
0.0501345
0.04932658
0.0484923
0.04765438
0.04680924
0.04599669
0.04537065
0.04492484
0.04468212
0.04467331
0.04490674
0.04535758
0.0459938
0.04684686
0.0477561
0.04868583
0.04960247
0.05048676
0.0513369
0.05217121
0.05302273
0.05394147
0.05499924
0.05609686
0.05526982
0.05422697
0.05322021
0.05234335
0.05152601
0.05071789
0.04988498
0.04900977
0.04810172
0.04717003
0.04621482
0.04537081
0.04469142
0.04418413
0.04390369
0.04388862
0.04415041
0.0446566
0.04535256
0.04622013
0.0472348
0.0482628
0.04926371
0.05021757
0.05112434
0.05200231
0.05288598
0.05382672
0.0548975
0.05599978
0.05520799
0.05416327
0.05314828
0.05225687
0.05141783
0.05057983
0.0497079
0.04878245
0.04781905
0.04681546
0.04578833
0.04492999
0.04419108
0.04363388
0.0433228
0.04330197
0.0435859
0.04413711
0.04489126
0.0457797
0.04685236
0.04795376
0.04902086
0.05002734
0.05097546
0.05188517
0.05279252
0.05374922
0.05482958
0.05593597
0.05517645
0.05413036
0.05311105
0.05221212
0.05136181
0.05050824
0.04961582
0.04866319
0.04766969
0.04662645
0.0455839
0.04469539
0.04392286
0.04333785
0.04300908
0.04298435
0.0432806
0.04385743
0.04464468
0.04556316
0.04664846
0.04778939
0.04889426
0.04992927
0.05089938
0.05182573
0.0527453
0.05371037
0.0547959
0.05590473
0.05517623
0.05413022
0.05311098
0.0522121
0.05136186
0.05050835
0.04961599
0.04866344
0.04767
0.04662685
0.04558438
0.04469598
0.04392358
0.04333871
0.04301011
0.04298558
0.04328202
0.04385904
0.04464646
0.04556513
0.0466507
0.04779171
0.04889664
0.04993177
0.05090199
0.0518285
0.05274824
0.05371352
0.05479931
0.0559085
0.05520721
0.05416285
0.05314806
0.05225683
0.05141796
0.05058015
0.04970842
0.0487832
0.04782
0.04681666
0.04578978
0.04493176
0.04419322
0.04363643
0.04332583
0.04330554
0.04359003
0.04414178
0.04489648
0.04578549
0.04685884
0.04796052
0.0490279
0.05003482
0.05098338
0.05189359
0.05280152
0.05375885
0.05484001
0.05594756
0.05526796
0.05422623
0.05321988
0.05234328
0.05152623
0.05071843
0.04988587
0.04901105
0.04810334
0.04717204
0.04621721
0.04537381
0.04469503
0.04418843
0.04390875
0.04389451
0.0441572
0.04466426
0.0453611
0.04622986
0.04724524
0.04827376
0.04927524
0.05022993
0.05113778
0.05201667
0.05290175
0.05384362
0.0549157
0.05602008
0.05535667
0.05431771
0.053323
0.05246691
0.05168035
0.05091425
0.05013579
0.04932841
0.04849466
0.04765723
0.04681249
0.04600099
0.04537583
0.04493096
0.04468926
0.04468155
0.04491615
0.04536817
0.04600595
0.04686005
0.04777019
0.04870065
0.04961811
0.05050346
0.0513549
0.05219034
0.05304348
0.05396355
0.0550228
0.05612269
0.05546838
0.05443337
0.05345303
0.05262201
0.05187244
0.05115649
0.05044241
0.04971355
0.04896795
0.04823023
0.04750555
0.04682075
0.04622697
0.04580059
0.04559328
0.04559149
0.04580048
0.04623666
0.04685947
0.04759068
0.04838645
0.04921023
0.05003408
0.05083732
0.0516219
0.05240535
0.05321955
0.05411316
0.05515686
0.05625129
0.05560018
0.0545697
0.05360568
0.05280297
0.05209475
0.05143416
0.05079021
0.05014578
0.04949741
0.04885807
0.04824495
0.04768118
0.04720096
0.04684726
0.04665895
0.04666178
0.04686031
0.04723608
0.04775287
0.04837128
0.04905747
0.04977569
0.05049808
0.05121421
0.0519271
0.05265389
0.05342551
0.05428978
0.05531631
0.05640564
0.05574978
0.05472398
0.05377776
0.05300564
0.05234144
0.05173879
0.05116699
0.05060824
0.05005713
0.04951712
0.04900935
0.04854826
0.04816267
0.0478838
0.04773937
0.04774786
0.04791334
0.04822426
0.04865639
0.04917849
0.04975707
0.05036704
0.05099054
0.05162013
0.05226038
0.0529287
0.05365568
0.05448874
0.05549696
0.05658153
0.05591586
0.05489508
0.0539683
0.05322885
0.05261044
0.05206652
0.05156601
0.05108994
0.05063021
0.0501871
0.04977282
0.04940489
0.0491036
0.04889114
0.04878679
0.0488032
0.04894315
0.04919826
0.04955093
0.04997839
0.05045749
0.05096893
0.05150013
0.05204723
0.05261666
0.05322653
0.05390775
0.05470799
0.05569653
0.05677631
0.05609889
0.05508439
0.05417989
0.05347597
0.05290521
0.05241986
0.05198763
0.05158795
0.05121055
0.05085369
0.05052339
0.05023495
0.05000293
0.04984373
0.04977102
0.04979331
0.04991204
0.05012108
0.05040798
0.05075658
0.05115035
0.05157567
0.05202435
0.05249562
0.05299776
0.05355005
0.05418435
0.05494946
0.05591599
0.05698991
0.05630189
0.05529721
0.05442065
0.05375723
0.05323688
0.05280947
0.05244091
0.0521092
0.05180278
0.05151849
0.05125981
0.05103671
0.0508612
0.05074459
0.05069646
0.05072267
0.05082407
0.05099629
0.05123058
0.05151552
0.05183944
0.05219289
0.05257086
0.05297475
0.05341433
0.05391003
0.05449518
0.05522063
0.05615968
0.05722424
0.05653134
0.05554495
0.05470725
0.05409281
0.05362687
0.05325622
0.05294532
0.05267189
0.05242427
0.05219869
0.05199707
0.05182579
0.05169445
0.05161073
0.05158144
0.05161067
0.05169902
0.05184339
0.05203755
0.05227342
0.05254272
0.05283886
0.05315882
0.05350511
0.05388795
0.05432821
0.05486041
0.05553805
0.05643878
0.05748539
0.05679851
0.0558487
0.05506949
0.05451672
0.05410962
0.05379308
0.05353229
0.05330654
0.05310527
0.05292486
0.05276644
0.05263442
0.05253577
0.05247653
0.05246135
0.05249321
0.05257255
0.05269714
0.05286248
0.0530627
0.05329174
0.05354482
0.05381992
0.05411957
0.05445317
0.05484028
0.05531482
0.05593191
0.05677464
0.05778467
0.05712379
0.05624743
0.05555851
0.055083
0.05473721
0.05446934
0.05424912
0.05405944
0.05389187
0.05374359
0.05361549
0.05351093
0.05343519
0.05339321
0.05338825
0.05342261
0.05349665
0.0536087
0.05375538
0.05393218
0.05413445
0.05435834
0.0546021
0.05486746
0.05516169
0.05550089
0.05591465
0.05645493
0.05720735
0.05814323
0.0575415
0.05681332
0.0562573
0.05587156
0.05558393
0.05535507
0.05516345
0.05499719
0.0548506
0.05472203
0.05461255
0.05452497
0.0544636
0.0544327
0.05443478
0.05447171
0.05454384
0.05464982
0.05478692
0.05495146
0.05513953
0.0553477
0.05557399
0.05581884
0.05608663
0.05638801
0.05674376
0.05719342
0.05781132
0.05859682
0.05801434
0.05754984
0.05714082
0.05682784
0.05657681
0.05636687
0.05618615
0.05602761
0.05588777
0.05576589
0.05566324
0.05558238
0.05552682
0.05550064
0.05550629
0.05554547
0.05561847
0.05572414
0.05586001
0.05602279
0.05620886
0.05641495
0.05663876
0.05687969
0.05713963
0.05742406
0.05774357
0.05811859
0.05858487
0.0591002
0.1058828
0.1057248
0.105492
0.1052383
0.1049823
0.104731
0.1044876
0.1042547
0.1040359
0.1038364
0.1036626
0.1035223
0.1034236
0.1033739
0.1033786
0.1034406
0.1035603
0.103735
0.1039596
0.1042268
0.1045284
0.1048555
0.1051999
0.1055542
0.1059119
0.1062671
0.1066131
0.1069395
0.1072239
0.1074075
0.1057237
0.1054354
0.1050982
0.1047782
0.104481
0.1042022
0.1039383
0.1036882
0.1034537
0.1032392
0.1030514
0.1028983
0.1027887
0.1027308
0.1027303
0.1027906
0.1029119
0.1030914
0.1033234
0.1036
0.1039123
0.1042512
0.1046083
0.1049769
0.1053526
0.1057334
0.1061197
0.1065132
0.1069055
0.1072254
0.1054826
0.1050904
0.1046415
0.1042338
0.1038709
0.1035408
0.1032339
0.1029451
0.1026741
0.102425
0.1022046
0.1020224
0.1018883
0.1018123
0.1018012
0.101859
0.101986
0.1021787
0.1024304
0.1027317
0.1030723
0.1034419
0.1038318
0.104236
0.1046521
0.1050824
0.1055338
0.1060161
0.1065235
0.1069518
0.1052131
0.1047554
0.1042192
0.1037291
0.1032938
0.1028994
0.1025328
0.1021867
0.1018599
0.1015563
0.1012844
0.1010556
0.1008828
0.1007784
0.1007511
0.100806
0.1009435
0.1011592
0.1014444
0.1017873
0.1021751
0.1025954
0.103038
0.1034966
0.1039702
0.1044634
0.1049867
0.1055523
0.1061492
0.1066454
0.1049346
0.1044366
0.1038354
0.1032733
0.1027653
0.1022982
0.1018585
0.1014381
0.1010359
0.1006574
0.1003135
0.1000192
0.09979166
0.099647
0.09959706
0.09964867
0.09980236
0.1000522
0.1003865
0.10079
0.1012456
0.1017373
0.1022524
0.1027831
0.1033281
0.1038929
0.1044885
0.1051264
0.1057895
0.1063272
0.104655
0.1041305
0.1034792
0.1028534
0.1022731
0.1017269
0.1012021
0.1006911
0.1001941
0.09971908
0.099281
0.09890015
0.09859983
0.09840154
0.09832156
0.09836929
0.09854551
0.09884212
0.09924335
0.09972822
0.1002739
0.100859
0.1014666
0.1020863
0.1027152
0.1033581
0.1040257
0.1047276
0.1054416
0.1060061
0.1043785
0.1038347
0.1031418
0.1024575
0.1018047
0.1011738
0.1005529
0.09993572
0.09932442
0.09873064
0.09817487
0.09768457
0.09729155
0.09702447
0.09690592
0.09694898
0.09715486
0.09751245
0.09800012
0.09858923
0.09924879
0.09995008
0.1006704
0.1013952
0.1021195
0.1028468
0.1035867
0.1043474
0.1051036
0.1056875
0.1041088
0.1035491
0.1028191
0.102079
0.1013531
0.1006325
0.09990585
0.09916807
0.09842394
0.09768948
0.09699205
0.09636876
0.09586159
0.09550909
0.09534236
0.09537971
0.095623
0.09605703
0.09665217
0.09736951
0.09816735
0.09900745
0.09985971
0.1007048
0.1015349
0.1023521
0.1031656
0.1039826
0.1047763
0.1053763
0.1038501
0.1032761
0.1025116
0.1017174
0.100918
0.100104
0.09926419
0.09839424
0.09750141
0.09660666
0.09574519
0.09496603
0.09432268
0.09386693
0.09364141
0.09367191
0.09396122
0.09448822
0.09521236
0.09608153
0.09704067
0.09804012
0.09904119
0.1000191
0.1009632
0.1018748
0.1027628
0.1036347
0.1044636
0.105078
0.103608
0.1030206
0.1022236
0.1013773
0.1005052
0.09959695
0.09864038
0.09763136
0.09657918
0.09550974
0.09446631
0.09351095
0.09271037
0.09213249
0.0918357
0.09185848
0.09220492
0.09284336
0.09371713
0.09475831
0.09589719
0.09707146
0.09823305
0.09935166
0.1004143
0.1014219
0.1023841
0.1033094
0.1041717
0.1047997
0.1033891
0.1027894
0.1019623
0.1010672
0.1001259
0.09912646
0.09805512
0.09690722
0.09569322
0.09444267
0.09320787
0.09205925
0.09107877
0.09035575
0.08996567
0.08997905
0.09040219
0.09117627
0.09222337
0.09345436
0.09478394
0.09613942
0.09746496
0.09872508
0.099905
0.1010061
0.1020395
0.1030151
0.1039087
0.1045495
0.1032009
0.1025903
0.1017367
0.1007982
0.09979481
0.09871236
0.09753534
0.09625786
0.09489076
0.09346448
0.09203894
0.09068937
0.08949849
0.08863471
0.08817722
0.08818215
0.08865747
0.08955853
0.09081145
0.09224157
0.09376249
0.09529424
0.09677573
0.09816864
0.09945726
0.100644
0.1017417
0.1027626
0.103684
0.1043364
0.1030515
0.1024319
0.1015566
0.1005825
0.09952782
0.09837639
0.09711065
0.09572314
0.09422433
0.09264345
0.0910447
0.08948675
0.08815395
0.08717369
0.08664982
0.08664664
0.08717403
0.08818085
0.08956817
0.09120787
0.09290441
0.094592
0.09620853
0.09771464
0.09909499
0.1003533
0.1015045
0.1025627
0.1035071
0.1041692
0.1029471
0.1023212
0.1014306
0.1004312
0.09933994
0.09813895
0.09680902
0.09534109
0.09374453
0.09204872
0.09031295
0.08861767
0.08717106
0.08610228
0.08552711
0.08551757
0.08608519
0.08717281
0.08866932
0.09044043
0.09228168
0.09408733
0.09580427
0.09739348
0.09884053
0.1001506
0.1013402
0.1024252
0.1033861
0.1040555
0.1028933
0.1022642
0.1013656
0.1003531
0.09924281
0.09801592
0.09665231
0.09514187
0.09349309
0.09173425
0.08991376
0.08815774
0.08665044
0.08553371
0.08493056
0.08491756
0.08550731
0.0866391
0.08819452
0.09002559
0.09195392
0.0938245
0.09559539
0.09722876
0.09871105
0.1000484
0.1012582
0.1023572
0.1033269
0.1040001
0.1028931
0.1022641
0.1013656
0.1003532
0.09924296
0.09801619
0.0966527
0.0951424
0.0934938
0.09173516
0.0899149
0.08815913
0.08665212
0.08553572
0.0849329
0.08492026
0.08551035
0.08664248
0.08819823
0.09002962
0.09195817
0.09382897
0.09560007
0.09723366
0.09871616
0.1000537
0.1012637
0.1023629
0.1033328
0.1040062
0.1029466
0.102321
0.1014305
0.1004314
0.09934041
0.09813974
0.0968102
0.09534271
0.09374667
0.09205145
0.09031635
0.08862184
0.08717608
0.08610825
0.08553408
0.08552556
0.08609422
0.08718284
0.08868031
0.09045235
0.09229428
0.09410059
0.0958182
0.09740807
0.09885576
0.1001665
0.1013567
0.1024423
0.1034039
0.1040738
0.1030508
0.1024315
0.1015565
0.1005828
0.09952862
0.09837774
0.09711264
0.09572588
0.09422793
0.09264802
0.09105037
0.0894937
0.08816233
0.0871836
0.08666134
0.08665983
0.08718889
0.08819732
0.08958615
0.09122724
0.09292502
0.09461376
0.0962314
0.09773862
0.09912006
0.1003794
0.1015316
0.1025908
0.1035362
0.1041994
0.1032005
0.10259
0.1017367
0.1007987
0.09979596
0.09871429
0.09753819
0.09626177
0.09489587
0.09347096
0.09204692
0.09069913
0.08951022
0.08864853
0.08819321
0.08820037
0.08867791
0.08958111
0.09083604
0.09226801
0.09379063
0.09532402
0.09680706
0.09820146
0.09949153
0.1006796
0.1017787
0.1028008
0.1037235
0.104377
0.1033884
0.102789
0.1019623
0.1010679
0.1001275
0.099129
0.09805886
0.09691234
0.0956999
0.0944511
0.09321824
0.09207181
0.09109374
0.09037341
0.08998603
0.09000215
0.09042802
0.09120446
0.092254
0.09348733
0.09481911
0.09617664
0.09750412
0.09876608
0.09994773
0.1010505
0.1020853
0.1030624
0.1039572
0.1045991
0.1036071
0.10302
0.1022236
0.1013781
0.1005071
0.09960009
0.09864502
0.09763771
0.09658743
0.09552011
0.09447901
0.09352621
0.0927284
0.09215346
0.09185972
0.09188561
0.09223515
0.09287663
0.09375331
0.09479725
0.09593875
0.0971155
0.09827941
0.09940022
0.1004649
0.1014743
0.1024382
0.103365
0.1042287
0.1048577
0.1038489
0.1032753
0.1025114
0.1017183
0.1009202
0.1001077
0.09926971
0.09840178
0.09751118
0.09661889
0.09576009
0.0949838
0.09434353
0.09389103
0.09366888
0.09370282
0.09399558
0.09452598
0.09525342
0.09612577
0.09708795
0.09809031
0.09909411
0.1000746
0.101021
0.1019348
0.1028247
0.1036983
0.1045287
0.105144
0.1041072
0.1035479
0.1028187
0.1020799
0.1013556
0.1006368
0.0999122
0.09917674
0.09843515
0.09770344
0.09700898
0.09638884
0.095885
0.09553599
0.09537289
0.09541394
0.09566096
0.09609872
0.09669751
0.09741841
0.0982197
0.0990631
0.0999185
0.1007666
0.1015993
0.1024191
0.1032347
0.1040535
0.1048488
0.1054498
0.1043764
0.1038331
0.1031412
0.1024583
0.1018073
0.1011786
0.10056
0.09994542
0.09933694
0.09874618
0.09819362
0.0977067
0.09731722
0.09705384
0.09693911
0.09698609
0.09719594
0.09755752
0.09804915
0.09864217
0.09930554
0.1000105
0.1007343
0.1014625
0.1021898
0.1029199
0.1036623
0.104425
0.1051829
0.105768
0.1046523
0.1041284
0.1034783
0.1028541
0.1022758
0.101732
0.1012098
0.1007017
0.1002078
0.099736
0.09930134
0.09892407
0.09862746
0.09843302
0.09835702
0.09840884
0.09858923
0.09889006
0.09929551
0.09978459
0.1003344
0.1009236
0.1015351
0.1021584
0.1027907
0.1034368
0.1041071
0.1048112
0.105527
0.1060927
0.1049313
0.104434
0.1038342
0.1032739
0.1027681
0.1023036
0.1018667
0.1014495
0.1010506
0.1006755
0.1003352
0.1000446
0.09982093
0.09968025
0.09963442
0.09969026
0.09984827
0.1001025
0.1004413
0.1008492
0.1013093
0.1018053
0.1023246
0.1028594
0.1034081
0.1039762
0.1045748
0.1052152
0.1058802
0.1064191
0.1052092
0.1047523
0.1042175
0.1037294
0.1032966
0.102905
0.1025415
0.1021988
0.1018754
0.1015754
0.1013072
0.1010823
0.1009135
0.1008131
0.10079
0.1008492
0.1009912
0.1012115
0.1015013
0.1018489
0.1022414
0.1026663
0.1031133
0.1035763
0.1040539
0.1045507
0.1050771
0.1056453
0.1062442
0.1067417
0.1054782
0.1050869
0.1046395
0.1042339
0.1038736
0.1035466
0.1032429
0.1029576
0.1026903
0.1024449
0.1022284
0.1020501
0.10192
0.1018482
0.1018414
0.1019036
0.1020352
0.1022326
0.102489
0.1027952
0.1031406
0.1035151
0.1039097
0.1043184
0.1047387
0.1051728
0.1056275
0.1061125
0.1066219
0.1070515
0.105719
0.1054316
0.1050959
0.1047782
0.1044838
0.1042081
0.1039476
0.1037011
0.1034704
0.1032597
0.1030759
0.1029268
0.1028213
0.1027676
0.1027715
0.1028363
0.1029622
0.1031465
0.1033834
0.103665
0.1039823
0.1043262
0.1046882
0.1050615
0.1054415
0.1058262
0.1062158
0.106612
0.1070063
0.1073273
0.1058779
0.1057207
0.1054895
0.1052381
0.104985
0.1047369
0.104497
0.1042678
0.1040529
0.1038573
0.1036875
0.1035513
0.1034567
0.1034113
0.1034204
0.103487
0.1036114
0.1037909
0.1040205
0.1042928
0.1045994
0.1049317
0.105281
0.1056401
0.1060022
0.1063613
0.1067107
0.1070398
0.1073261
0.1075107
0.1246705
0.1245878
0.124443
0.1242578
0.1240484
0.1238256
0.123597
0.123369
0.1231485
0.1229433
0.1227624
0.1226156
0.1225124
0.1224617
0.1224698
0.1225402
0.1226731
0.1228653
0.1231105
0.1234001
0.1237238
0.1240707
0.1244297
0.1247903
0.1251426
0.1254766
0.1257807
0.1260404
0.1262361
0.1263439
0.1245828
0.1244591
0.1242676
0.1240429
0.123802
0.1235532
0.1233018
0.1230528
0.1228122
0.1225878
0.122389
0.1222261
0.1221096
0.1220491
0.1220517
0.122121
0.1222573
0.1224572
0.1227137
0.1230174
0.1233572
0.1237216
0.1240991
0.1244795
0.1248535
0.1252127
0.1255481
0.1258477
0.1260913
0.1262419
0.1244261
0.1242559
0.1240013
0.1237157
0.1234206
0.1231234
0.1228272
0.1225353
0.1222531
0.1219886
0.1217522
0.1215556
0.1214113
0.1213305
0.1213216
0.121389
0.121533
0.1217495
0.1220304
0.1223644
0.1227389
0.1231406
0.1235574
0.1239786
0.1243959
0.1248026
0.1251919
0.1255531
0.1258616
0.1260603
0.1242216
0.1240123
0.1236971
0.1233453
0.1229847
0.1226235
0.1222644
0.1219097
0.121565
0.1212392
0.1209446
0.1206957
0.1205077
0.1203952
0.1203685
0.1204334
0.1205902
0.1208336
0.1211534
0.1215357
0.1219647
0.1224247
0.1229013
0.1233831
0.1238617
0.1243312
0.1247857
0.1252138
0.1255842
0.1258231
0.123986
0.1237457
0.1233769
0.1229598
0.122528
0.1220918
0.1216543
0.1212181
0.1207898
0.1203803
0.1200051
0.1196831
0.1194341
0.1192769
0.1192253
0.119287
0.1194625
0.1197448
0.1201203
0.120571
0.1210765
0.1216169
0.1221745
0.1227358
0.1232913
0.1238347
0.1243601
0.1248538
0.1252787
0.1255494
0.123731
0.1234653
0.1230487
0.1225683
0.1220618
0.1215416
0.1210116
0.1204757
0.1199422
0.1194255
0.1189456
0.1185274
0.1181974
0.1179808
0.1178962
0.1179541
0.1181552
0.11849
0.1189403
0.1194821
0.1200882
0.1207327
0.1213931
0.1220524
0.1226991
0.1233259
0.1239257
0.1244828
0.1249561
0.1252526
0.123465
0.1231772
0.1227167
0.1221742
0.12159
0.1209777
0.1203424
0.1196892
0.1190291
0.1183806
0.1177702
0.1172306
0.1167977
0.1165051
0.1163782
0.1164315
0.1166659
0.1170687
0.1176153
0.1182729
0.1190056
0.1197791
0.1205643
0.1213396
0.1220909
0.1228094
0.1234869
0.1241064
0.1246241
0.124943
0.1231955
0.1228873
0.1223851
0.1217811
0.1211165
0.1204054
0.1196532
0.1188667
0.1180595
0.117255
0.1164876
0.1158003
0.1152409
0.1148543
0.114675
0.1147227
0.114999
0.1154867
0.1161524
0.1169521
0.1178381
0.1187653
0.1196966
0.1206049
0.1214729
0.1222904
0.1230487
0.1237303
0.1242902
0.1246296
0.1229298
0.1226024
0.12206
0.1213951
0.1206484
0.1198337
0.1189561
0.1180231
0.117051
0.1160689
0.1151198
0.1142591
0.1135498
0.1130506
0.1128081
0.1128493
0.1131765
0.1137665
0.1145745
0.1155419
0.1166063
0.1177099
0.1188058
0.1198611
0.1208553
0.1217774
0.1226186
0.1233619
0.1239627
0.1243217
0.1226762
0.1223306
0.1217497
0.1210255
0.1201973
0.1192775
0.1182702
0.117183
0.1160342
0.1148583
0.1137078
0.1126522
0.1117717
0.1111424
0.1108264
0.1108603
0.1112474
0.1119563
0.1129275
0.1140846
0.1153477
0.1166445
0.117918
0.119129
0.1202547
0.1212835
0.1222076
0.1230115
0.1236516
0.1240293
0.122444
0.1220815
0.1214649
0.1206848
0.1197789
0.1187572
0.1176223
0.1163809
0.1150527
0.1136768
0.1123145
0.1110506
0.1099828
0.1092088
0.1088103
0.1088361
0.1092908
0.1101331
0.1112841
0.1126454
0.1141181
0.1156153
0.11707
0.1184376
0.1196932
0.120826
0.1218298
0.122691
0.123368
0.123763
0.1222427
0.1218654
0.1212172
0.1203874
0.1194115
0.1182972
0.1170447
0.1156595
0.1141617
0.1125933
0.1110235
0.1095507
0.1082875
0.107357
0.1068732
0.1068906
0.1074152
0.108402
0.109743
0.1113107
0.1129897
0.1146803
0.1163072
0.1178215
0.1191976
0.1204255
0.1215014
0.1224139
0.1231236
0.1235341
0.1220818
0.1216924
0.1210185
0.120148
0.1191143
0.117923
0.116572
0.1150649
0.1134216
0.1116858
0.1099318
0.1082661
0.1068263
0.1057733
0.1052183
0.1052281
0.1058104
0.10691
0.1084203
0.110181
0.1120441
0.1139036
0.1156788
0.1173181
0.1187956
0.120103
0.1212386
0.1221934
0.1229299
0.1233531
0.1219693
0.1215714
0.1208793
0.1199798
0.1189049
0.1176583
0.116236
0.1146401
0.1128898
0.1110294
0.1091365
0.1073197
0.1057604
0.1046134
0.1040043
0.1040083
0.1046345
0.1058209
0.1074473
0.1093577
0.1113609
0.1133465
0.1152311
0.1169617
0.1185129
0.1198776
0.1210561
0.1220411
0.1227968
0.1232291
0.1219114
0.1215091
0.1208075
0.1198931
0.1187968
0.1175212
0.1160615
0.1144188
0.1126118
0.1106849
0.1087172
0.1068226
0.1051978
0.1039998
0.1033614
0.1033624
0.1040127
0.1052466
0.1069371
0.1089249
0.1110039
0.1130572
0.1150001
0.1167791
0.1183691
0.119764
0.1209649
0.1219658
0.1227316
0.1231687
0.1219116
0.1215093
0.1208078
0.1198934
0.1187972
0.1175217
0.1160622
0.1144196
0.1126128
0.1106861
0.1087187
0.1068244
0.1051999
0.1040023
0.1033643
0.1033658
0.1040164
0.1052507
0.1069415
0.1089297
0.111009
0.1130625
0.1150056
0.1167848
0.118375
0.1197701
0.1209712
0.1219723
0.1227382
0.1231754
0.1219698
0.1215719
0.12088
0.1199808
0.1189062
0.1176599
0.116238
0.1146426
0.1128928
0.1110331
0.109141
0.1073251
0.1057668
0.1046209
0.104013
0.1040182
0.1046456
0.1058331
0.1074605
0.1093718
0.1113758
0.1133622
0.1152475
0.1169788
0.1185305
0.1198959
0.1210748
0.1220603
0.1228164
0.123249
0.1220826
0.1216933
0.1210197
0.1201495
0.1191163
0.1179256
0.1165753
0.115069
0.1134266
0.111692
0.1099393
0.1082751
0.1068369
0.1057857
0.1052326
0.1052444
0.1058285
0.1069299
0.1084419
0.1102041
0.1120686
0.1139294
0.1157058
0.1173461
0.1188246
0.120133
0.1212694
0.1222249
0.1229621
0.1233858
0.1222439
0.1218667
0.1212189
0.1203896
0.1194143
0.1183008
0.1170494
0.1156653
0.1141688
0.112602
0.111034
0.1095632
0.1083022
0.1073741
0.1068929
0.1069128
0.1074399
0.1084293
0.1097725
0.1113423
0.1130232
0.1147156
0.1163441
0.11786
0.1192374
0.1204666
0.1215436
0.1224572
0.1231677
0.1235788
0.1224454
0.1220831
0.121467
0.1206876
0.1197824
0.1187619
0.1176283
0.1163884
0.1150619
0.113688
0.1123279
0.1110665
0.1100015
0.1092304
0.108835
0.1088639
0.1093216
0.1101669
0.1113208
0.1126847
0.1141599
0.1156593
0.1171162
0.1184857
0.1197432
0.1208776
0.1218828
0.1227452
0.1234231
0.1238188
0.1226776
0.1223323
0.1217521
0.1210287
0.1202016
0.1192831
0.1182775
0.1171921
0.1160454
0.1148719
0.113724
0.1126713
0.111794
0.111168
0.1108556
0.110893
0.1112836
0.1119961
0.1129706
0.1141309
0.1153969
0.1166965
0.1179726
0.1191861
0.1203139
0.1213446
0.1222705
0.1230758
0.123717
0.1240953
0.1229311
0.1226041
0.1220624
0.1213986
0.1206533
0.1198402
0.1189646
0.1180338
0.1170642
0.1160847
0.1151386
0.1142812
0.1135754
0.1130798
0.1128412
0.1128864
0.1132176
0.1138115
0.1146232
0.1155943
0.1166622
0.117769
0.118868
0.1199261
0.120923
0.1218474
0.1226906
0.1234356
0.1240376
0.1243973
0.1231965
0.1228888
0.1223875
0.1217848
0.1211218
0.1204127
0.1196628
0.1188788
0.1180743
0.1172729
0.1165088
0.1158251
0.1152695
0.1148868
0.1147116
0.1147636
0.1150442
0.1155362
0.1162061
0.1170099
0.1178997
0.1188307
0.1197655
0.1206771
0.1215481
0.1223683
0.1231289
0.1238124
0.1243736
0.1247139
0.1234657
0.1231784
0.1227189
0.122178
0.1215957
0.1209857
0.1203529
0.1197026
0.1190456
0.1184004
0.1177935
0.1172577
0.1168288
0.1165404
0.1164179
0.1164756
0.1167146
0.117122
0.1176731
0.1183352
0.1190722
0.1198499
0.1206391
0.1214181
0.1221728
0.1228944
0.1235745
0.1241961
0.1247153
0.1250351
0.123731
0.123466
0.1230506
0.122572
0.1220677
0.12155
0.1210228
0.1204901
0.11996
0.1194468
0.1189708
0.1185565
0.1182307
0.1180184
0.1179384
0.1180009
0.1182067
0.1185463
0.1190015
0.1195481
0.120159
0.120808
0.1214729
0.1221362
0.1227867
0.1234169
0.1240196
0.1245792
0.1250541
0.1253516
0.1239854
0.1237458
0.1233784
0.1229632
0.1225339
0.1221006
0.1216662
0.1212334
0.1208087
0.120403
0.1200318
0.1197139
0.1194691
0.1193164
0.1192695
0.119336
0.1195164
0.1198037
0.1201843
0.1206401
0.1211507
0.121696
0.1222584
0.1228242
0.1233838
0.123931
0.1244595
0.1249558
0.1253825
0.1256543
0.1242203
0.1240118
0.1236981
0.1233485
0.1229905
0.1226325
0.1222768
0.1219258
0.1215849
0.121263
0.1209725
0.1207278
0.1205443
0.1204363
0.1204143
0.1204841
0.120646
0.1208946
0.1212197
0.1216073
0.1220416
0.1225068
0.1229885
0.1234751
0.1239581
0.1244316
0.1248896
0.1253204
0.1256928
0.1259328
0.1244241
0.1242547
0.1240019
0.1237186
0.1234264
0.1231325
0.1228399
0.1225518
0.1222737
0.1220133
0.121781
0.1215888
0.1214489
0.1213728
0.1213686
0.121441
0.1215902
0.121812
0.1220983
0.1224379
0.1228178
0.1232251
0.1236471
0.1240734
0.1244954
0.1249062
0.1252992
0.1256633
0.1259737
0.1261735
0.1245803
0.1244575
0.1242678
0.1240456
0.1238077
0.1235624
0.1233148
0.1230697
0.1228332
0.122613
0.1224185
0.12226
0.122148
0.1220922
0.1220996
0.122174
0.1223155
0.1225208
0.1227828
0.1230921
0.1234377
0.1238076
0.1241907
0.1245763
0.1249551
0.1253186
0.1256577
0.1259602
0.126206
0.1263576
0.1246677
0.124586
0.124443
0.1242603
0.124054
0.1238347
0.12361
0.1233861
0.1231698
0.1229689
0.1227923
0.1226499
0.1225512
0.1225052
0.1225182
0.1225937
0.1227318
0.1229294
0.1231803
0.1234756
0.1238051
0.1241576
0.1245222
0.1248882
0.1252454
0.1255838
0.1258917
0.1261543
0.126352
0.1264609
0.1354548
0.1354022
0.1353012
0.1351611
0.1349916
0.1348016
0.1345989
0.1343909
0.1341855
0.1339917
0.1338194
0.1336794
0.1335819
0.1335362
0.1335491
0.1336242
0.1337615
0.1339578
0.1342061
0.1344973
0.1348202
0.1351627
0.1355129
0.135859
0.1361897
0.136494
0.1367603
0.1369761
0.1371288
0.1372073
0.1353951
0.1353283
0.1352061
0.1350427
0.1348506
0.1346388
0.1344148
0.1341856
0.1339593
0.1337452
0.1335539
0.1333968
0.1332853
0.1332294
0.1332366
0.1333109
0.1334524
0.1336574
0.1339185
0.1342254
0.1345662
0.134928
0.1352981
0.1356645
0.136016
0.1363416
0.1366304
0.1368694
0.1370437
0.1371366
0.1352797
0.1351917
0.1350344
0.1348306
0.1345966
0.1343429
0.1340768
0.1338053
0.1335367
0.1332812
0.1330508
0.1328588
0.1327182
0.1326414
0.1326369
0.1327097
0.13286
0.1330831
0.1333704
0.1337099
0.1340876
0.1344888
0.1348995
0.1353068
0.1356992
0.1360661
0.1363963
0.1366759
0.1368856
0.1370002
0.1351177
0.1350067
0.1348091
0.1345552
0.1342662
0.1339543
0.1336276
0.1332937
0.1329616
0.132643
0.1323525
0.1321062
0.1319206
0.1318109
0.1317884
0.1318591
0.1320232
0.132275
0.1326036
0.1329938
0.1334286
0.1338903