/*--------------------------------*- C++ -*----------------------------------*\
| =========                 |                                                 |
| \\      /  F ield         | OpenFOAM: The Open Source CFD Toolbox           |
|  \\    /   O peration     | Version:  2506                                  |
|   \\  /    A nd           | Website:  www.openfoam.com                      |
|    \\/     M anipulation  |                                                 |
\*---------------------------------------------------------------------------*/
FoamFile
{
    version     2.0;
    format      ascii;
    arch        "LSB;label=32;scalar=64";
    class       volScalarField;
    location    "2500/air";
    object      nut;
}
// * * * * * * * * * * * * * * * * * * * * * * * * * * * * * * * * * * * * * //

dimensions      [0 2 -1 0 0 0 0];

internalField   nonuniform List<scalar> 
33752
(
0.008197847
0.008164902
0.008135756
0.008113365
0.008095357
0.00808028
0.008067306
0.008055943
0.008045944
0.008037253
0.008029952
0.008024215
0.008020281
0.00801843
0.008018828
0.008021586
0.00802672
0.00803414
0.008043672
0.008055078
0.008068107
0.008082528
0.008098187
0.008115049
0.008133253
0.008153194
0.008175615
0.008201945
0.008234662
0.008270735
0.008164327
0.008112453
0.008072593
0.008044812
0.008024038
0.008007494
0.007993652
0.007981666
0.007971128
0.007961913
0.00795409
0.007947847
0.007943484
0.007941298
0.007941456
0.007944085
0.007949203
0.007956707
0.007966401
0.007978021
0.007991289
0.008005969
0.008021925
0.008039199
0.008058112
0.00807943
0.008104624
0.008136481
0.008180183
0.008235492
0.008134584
0.00807191
0.008022283
0.007987855
0.007962747
0.007943282
0.007927298
0.007913562
0.007901463
0.00789079
0.007881594
0.007874107
0.007868696
0.007865715
0.007865382
0.007867858
0.007873159
0.007881162
0.007891616
0.0079042
0.00791858
0.007934488
0.007951808
0.007970676
0.007991625
0.008015814
0.008045356
0.008083916
0.008137462
0.008203666
0.008111347
0.008043228
0.007986912
0.007946749
0.007917087
0.007894011
0.007875024
0.007858629
0.007844052
0.007831021
0.007819604
0.007810108
0.007803028
0.007798796
0.007797737
0.00780006
0.00780579
0.007814756
0.007826627
0.007840978
0.007857372
0.007875471
0.007895142
0.007916581
0.007940479
0.007968253
0.008002325
0.008046588
0.008106813
0.008178503
0.008092229
0.008021335
0.007960653
0.007915906
0.00788188
0.007854802
0.007832119
0.007812215
0.007794231
0.007777881
0.007763285
0.007750904
0.007741426
0.007735404
0.007733326
0.007735487
0.007741919
0.007752387
0.007766429
0.007783451
0.007802851
0.007824158
0.007847165
0.007872069
0.007899626
0.007931351
0.007969714
0.008018488
0.00808305
0.008157529
0.008075808
0.008003477
0.007939876
0.007891488
0.007853434
0.007822166
0.007795231
0.007771032
0.007748713
0.007728027
0.007709215
0.007692995
0.007680245
0.007671791
0.007668334
0.0076703
0.007677744
0.00769033
0.0077074
0.007728107
0.007751593
0.00777717
0.007804488
0.007833664
0.007865425
0.007901259
0.007943555
0.007995898
0.008063359
0.008139274
0.008061299
0.007988161
0.00792245
0.007871055
0.007829277
0.007793732
0.007762099
0.007732877
0.007705299
0.007679213
0.00765508
0.007633979
0.007616997
0.007605356
0.007600073
0.007601778
0.007610569
0.00762597
0.007647037
0.007672551
0.007701287
0.007732241
0.007764828
0.007799008
0.007835405
0.007875427
0.007921366
0.007976669
0.008046229
0.008122945
0.008048246
0.007974571
0.007907176
0.007853147
0.007807853
0.007767984
0.007731301
0.007696413
0.007662708
0.007630173
0.007599732
0.00757263
0.007550403
0.007534726
0.007527061
0.007528356
0.007538806
0.007557763
0.007583869
0.007615388
0.007650582
0.007688017
0.007726779
0.007766608
0.007807997
0.007852281
0.007901693
0.007959613
0.008030862
0.008108108
0.008036435
0.007962325
0.007893462
0.007837016
0.007788342
0.007744134
0.007702163
0.007661116
0.007620576
0.007580724
0.007543227
0.007509008
0.007480337
0.007459578
0.007448853
0.007449586
0.007462072
0.007485373
0.007517604
0.007556369
0.007599155
0.007644053
0.007689758
0.007735756
0.007782412
0.007831024
0.007883819
0.007944172
0.008016909
0.008094589
0.008025829
0.007951318
0.007881115
0.007822405
0.007770481
0.007721981
0.007674639
0.007627169
0.007579286
0.007531927
0.007486322
0.007444233
0.00740823
0.007381678
0.007367553
0.0073679
0.007383046
0.007411466
0.007450319
0.007496572
0.007547596
0.007600743
0.007653923
0.007706418
0.007758493
0.007811442
0.007867535
0.007930197
0.008004313
0.008082404
0.008016507
0.007941624
0.007870193
0.007809389
0.007754406
0.007701794
0.00764921
0.007595379
0.007540131
0.007485257
0.007431024
0.007379466
0.007334536
0.007302643
0.007286983
0.007287016
0.007303134
0.007336005
0.007383307
0.007438405
0.007497941
0.007559171
0.007620076
0.007679149
0.007736585
0.007793745
0.00785298
0.007917807
0.007993208
0.008071708
0.008008613
0.007933428
0.007860919
0.007798256
0.007740532
0.007684182
0.007626762
0.007566983
0.007505022
0.007442444
0.007378854
0.007317276
0.007269967
0.007235916
0.007217391
0.00721699
0.007235346
0.007270266
0.007318784
0.007383659
0.007452147
0.007521632
0.007589692
0.007654972
0.007717408
0.007778432
0.007840516
0.00790729
0.007983849
0.008062749
0.008002538
0.007927004
0.007853595
0.007789406
0.007729416
0.00766995
0.007608444
0.00754354
0.007475922
0.007406019
0.007333741
0.007269761
0.007217543
0.007178277
0.007156587
0.007155696
0.007176491
0.007216162
0.007270077
0.007336172
0.007413019
0.007490121
0.007564639
0.007635191
0.007701886
0.007766165
0.007830628
0.007899028
0.007976561
0.008055836
0.007998247
0.007922551
0.007848517
0.007783243
0.00772163
0.007659915
0.007595447
0.007526705
0.007454801
0.007379277
0.007301683
0.007235847
0.007178562
0.007135062
0.007110778
0.007109431
0.007132139
0.007175668
0.007234558
0.007303035
0.007384226
0.007466978
0.007546605
0.007621161
0.007690967
0.007757613
0.007823829
0.007893406
0.007971652
0.008051247
0.007996108
0.007920297
0.007845934
0.007780094
0.007717633
0.00765474
0.007588709
0.007517879
0.007443629
0.007364973
0.007286083
0.007217677
0.007157539
0.007111663
0.007085867
0.007084203
0.007107984
0.007153711
0.007215411
0.007286453
0.007368772
0.007454609
0.00753714
0.007613868
0.007685324
0.007753209
0.007820327
0.007890519
0.007969148
0.008048931
0.007996191
0.007920383
0.00784602
0.007780178
0.007717712
0.007654813
0.007588774
0.007517936
0.007443678
0.007365018
0.007286126
0.007217713
0.007157568
0.007111689
0.007085893
0.007084233
0.00710802
0.007153755
0.007215465
0.007286517
0.007368854
0.007454684
0.007537208
0.007613936
0.007685392
0.007753282
0.007820407
0.007890608
0.007969251
0.008049056
0.007998483
0.007922805
0.007848772
0.00778349
0.007721864
0.007660131
0.007595641
0.007526875
0.007454947
0.007379407
0.00730181
0.007235955
0.007178651
0.007135138
0.007110852
0.007109515
0.00713224
0.007175793
0.007234711
0.00730322
0.007384448
0.007467184
0.007546799
0.007621362
0.007691179
0.007757841
0.007824079
0.007893685
0.007971975
0.008051643
0.00800288
0.007927413
0.00785401
0.007789808
0.007729797
0.007670302
0.007608761
0.007543818
0.007476158
0.007406224
0.007333926
0.007269941
0.007217699
0.007178415
0.007156719
0.007155838
0.007176659
0.007216366
0.007270328
0.007336517
0.007413343
0.007490426
0.007564938
0.007635511
0.007702252
0.007766564
0.007831098
0.007899551
0.007977153
0.008056561
0.008009252
0.00793402
0.007861487
0.0077988
0.007741045
0.007684659
0.007627193
0.00756736
0.007505344
0.007442714
0.007379076
0.007317518
0.007270197
0.007236129
0.007217597
0.007217207
0.007235593
0.007270558
0.00731919
0.007384056
0.007452528
0.007521997
0.007590062
0.007655371
0.007717853
0.007778911
0.007841067
0.0079079
0.007984534
0.008063573
0.008017249
0.007942344
0.007870887
0.007810052
0.007755033
0.007702379
0.007649742
0.007595848
0.007540531
0.007485596
0.007431318
0.007379749
0.007334833
0.007302931
0.007287268
0.007287313
0.007303465
0.007336434
0.007383724
0.007438814
0.007498343
0.007559558
0.007620479
0.007679573
0.007737031
0.007794209
0.007853476
0.007918345
0.007993806
0.008072397
0.008026666
0.00795214
0.007881907
0.007823161
0.007771197
0.007722651
0.007675254
0.007627717
0.007579759
0.007532326
0.007486665
0.007444544
0.007408532
0.00738199
0.007367886
0.007368256
0.007383416
0.007411849
0.007450708
0.007496962
0.007547985
0.007601149
0.00765434
0.007706849
0.007758936
0.007811898
0.007868011
0.007930704
0.008004866
0.008083021
0.008037345
0.007963218
0.007894322
0.007837836
0.007789119
0.007744863
0.007702837
0.007661723
0.007621107
0.007581176
0.007543605
0.007509336
0.007480635
0.007459866
0.007449144
0.007449888
0.007462388
0.007485698
0.00751794
0.007556719
0.007599525
0.007644445
0.007690167
0.007736177
0.007782843
0.007831465
0.007884276
0.007944654
0.008017425
0.008095154
0.008049198
0.007975504
0.007908073
0.007854002
0.007808662
0.007768745
0.007732008
0.007697056
0.007663278
0.007630664
0.007600148
0.007572981
0.007550706
0.007535
0.007527322
0.007528615
0.00753907
0.007558039
0.007584162
0.007615704
0.007650922
0.007688379
0.007727158
0.007766999
0.007808397
0.007852692
0.00790212
0.007960061
0.008031331
0.008108621
0.008062263
0.007989105
0.007923357
0.007871918
0.007830092
0.007794498
0.007762811
0.007733529
0.007705884
0.007679721
0.007655521
0.007634348
0.007617307
0.007605623
0.007600313
0.007602005
0.007610795
0.007626206
0.00764729
0.007672826
0.007701583
0.007732556
0.007765157
0.007799349
0.007835758
0.007875795
0.007921753
0.007977079
0.008046666
0.008123423
0.008076759
0.008004408
0.007940769
0.007892336
0.007854234
0.007822914
0.007795926
0.00777167
0.007749288
0.007728534
0.007709655
0.007693364
0.007680552
0.007672048
0.007668556
0.007670501
0.007677936
0.007690525
0.007707606
0.007728328
0.007751829
0.007777421
0.007804752
0.007833942
0.007865719
0.007901572
0.007943889
0.007996257
0.008063749
0.008139706
0.008093147
0.008022233
0.007961517
0.007916726
0.007882651
0.007855521
0.007832784
0.007812822
0.007794778
0.007778363
0.007763701
0.007751253
0.007741714
0.007735639
0.007733521
0.007735653
0.007742069
0.007752532
0.007766576
0.007783606
0.007803018
0.007824337
0.007847358
0.00787228
0.007899857
0.007931603
0.007969988
0.008018788
0.008083381
0.008157903
0.008112223
0.008044085
0.007987738
0.007947535
0.007917825
0.007894697
0.007875656
0.007859202
0.007844563
0.007831468
0.007819986
0.007810425
0.007803282
0.007798997
0.007797894
0.007800184
0.007805891
0.007814844
0.007826713
0.007841066
0.007857469
0.007875581
0.00789527
0.00791673
0.007940651
0.007968447
0.008002542
0.008046828
0.008107081
0.008178813
0.008135419
0.008072728
0.008023074
0.007988609
0.007963457
0.007943944
0.007927905
0.00791411
0.007901948
0.007891208
0.007881946
0.007874392
0.007868919
0.007865881
0.007865502
0.007867941
0.007873217
0.007881203
0.007891651
0.007904236
0.007918625
0.007934548
0.007951889
0.00797078
0.007991753
0.008015965
0.008045525
0.008084104
0.008137674
0.008203916
0.008165131
0.008113243
0.008073359
0.008045546
0.008024735
0.008008146
0.007994253
0.007982208
0.007971606
0.007962323
0.00795443
0.00794812
0.007943692
0.007941449
0.007941558
0.00794415
0.00794924
0.007956728
0.007966415
0.007978037
0.007991316
0.008006013
0.008021991
0.008039289
0.008058226
0.008079564
0.008104774
0.008136642
0.008180359
0.008235696
0.008198637
0.008165679
0.008136511
0.008114094
0.008096053
0.008080936
0.008067915
0.008056494
0.008046431
0.008037672
0.008030301
0.008024496
0.008020497
0.008018588
0.008018938
0.008021659
0.008026766
0.008034172
0.008043698
0.00805511
0.008068151
0.008082592
0.008098274
0.00811516
0.008133388
0.008153348
0.008175782
0.008202118
0.008234839
0.008270922
0.07720014
0.07731692
0.07734501
0.07730794
0.07723715
0.07714953
0.07705391
0.0769555
0.07685831
0.0767663
0.07668383
0.07661563
0.07656627
0.07653995
0.07653998
0.07656811
0.07662447
0.07670754
0.07681429
0.07694054
0.07708136
0.07723153
0.07738581
0.07753903
0.07768569
0.0778188
0.07792757
0.07799286
0.07798054
0.07786481
0.07731562
0.07748359
0.07753701
0.07750638
0.0774325
0.07733718
0.07723168
0.07712238
0.07701393
0.07691079
0.07681785
0.07674033
0.07668327
0.07665145
0.07664866
0.07667682
0.07673605
0.07682462
0.07693911
0.07707483
0.0772263
0.07738771
0.07755332
0.0777174
0.07787381
0.07801438
0.07812596
0.07818469
0.07814745
0.07798154
0.07733857
0.07753237
0.07760237
0.07757441
0.07749308
0.07738382
0.07726035
0.07713062
0.0770004
0.07687522
0.0767611
0.07666444
0.07659146
0.07654823
0.07653931
0.07656709
0.07663167
0.07673085
0.07686039
0.07701448
0.0771864
0.07736912
0.07755572
0.07773945
0.07791304
0.07806689
0.07818561
0.07824207
0.07818956
0.07799915
0.07729326
0.07749405
0.0775672
0.07753446
0.0774403
0.07731115
0.07716215
0.07700269
0.07684003
0.07668134
0.07653452
0.07640799
0.07631
0.07624874
0.07623009
0.07625714
0.07632998
0.07644566
0.07659853
0.07678094
0.07698408
0.07719887
0.07741651
0.07762866
0.07782667
0.0779997
0.07813121
0.07819326
0.07813894
0.07794244
0.07721161
0.07740977
0.07747616
0.07743106
0.07731791
0.07716246
0.07698008
0.07678118
0.07657465
0.07636988
0.07617749
0.07600885
0.07587545
0.07578855
0.07575602
0.07578204
0.07586667
0.07600581
0.07619172
0.07641395
0.07666059
0.07691949
0.07717922
0.07742931
0.07765966
0.07785858
0.07800941
0.07808472
0.07803824
0.07784493
0.07711093
0.07730172
0.07735486
0.07729063
0.07715167
0.07696259
0.07673818
0.07648931
0.07622639
0.07596151
0.07570892
0.07548391
0.07530306
0.07518164
0.07513047
0.07515527
0.07525601
0.07542694
0.07565734
0.07593278
0.07623699
0.07655366
0.07686784
0.07716657
0.07743831
0.07767093
0.07784815
0.07794344
0.07791095
0.07772539
0.07700041
0.07718155
0.07721736
0.07712849
0.07695703
0.07672649
0.0764508
0.07614073
0.07580797
0.07546756
0.07513821
0.07484051
0.07459829
0.07443215
0.07435698
0.07438057
0.07450271
0.07471531
0.0750035
0.07534746
0.07572508
0.0761146
0.07649678
0.07685583
0.0771788
0.07745337
0.07766384
0.0777845
0.07776989
0.07759425
0.07688563
0.07705603
0.07707201
0.07695434
0.07674456
0.07646512
0.07612895
0.07574639
0.07532998
0.07489776
0.07447282
0.07408459
0.07376523
0.07354271
0.07343748
0.07346027
0.07361046
0.07387649
0.07423773
0.07466722
0.07513541
0.07561373
0.07607793
0.07650916
0.07689313
0.07721743
0.07746703
0.07761715
0.07762285
0.07745819
0.07677086
0.0769301
0.07692489
0.07677574
0.07652336
0.07618898
0.07578435
0.07531904
0.07480587
0.07426525
0.07372536
0.0732279
0.07281444
0.07252177
0.0723781
0.0724001
0.07258711
0.07292127
0.07337324
0.07390665
0.07448312
0.07506591
0.07562532
0.07613943
0.07659276
0.07697303
0.07726611
0.07744836
0.07747573
0.07732247
0.07666024
0.07680842
0.07678172
0.07660004
0.07630293
0.07591008
0.07543171
0.07487615
0.07425585
0.07359159
0.07292105
0.07229524
0.07176457
0.07137608
0.07117163
0.07118998
0.07143185
0.07186024
0.07242924
0.07309024
0.07379274
0.07449324
0.07515803
0.07576258
0.07629066
0.0767305
0.07706924
0.07728472
0.07733405
0.0771921
0.07655823
0.07669591
0.07664856
0.07643517
0.07609387
0.07564254
0.07508948
0.07444115
0.07370881
0.07291217
0.07210027
0.07132581
0.07063002
0.07006754
0.06970718
0.06971531
0.07009713
0.07070533
0.0714424
0.07225474
0.07309834
0.0739264
0.07470102
0.0753982
0.07600188
0.07650131
0.07688518
0.07713308
0.07720354
0.07707227
0.07646951
0.07659773
0.07653178
0.07628954
0.07590765
0.07540206
0.07477896
0.07404246
0.07320099
0.07227525
0.07131557
0.07033935
0.06927143
0.06847347
0.06804179
0.06804346
0.06848379
0.06930678
0.07043096
0.07145239
0.07244806
0.07340215
0.07428355
0.07506858
0.07574306
0.07629776
0.07672313
0.07700056
0.07709003
0.07696822
0.07639803
0.07651883
0.07643762
0.07617148
0.07575569
0.07520448
0.07452206
0.0737103
0.0727732
0.0717318
0.07061107
0.06926667
0.06801937
0.06708586
0.06658582
0.06658177
0.06707924
0.06802624
0.06931067
0.07072435
0.07189265
0.0729625
0.07393611
0.07479642
0.07553087
0.07613205
0.07659208
0.07689398
0.07699906
0.07688486
0.07634859
0.07646381
0.07637166
0.07608837
0.07564817
0.07506396
0.07433846
0.07347194
0.07246339
0.07133053
0.07004944
0.06846881
0.06708738
0.06606232
0.06551336
0.0655056
0.06604456
0.06707605
0.06848616
0.07011385
0.07147917
0.07264555
0.07368731
0.07460221
0.07538017
0.07601494
0.07649982
0.07681924
0.07693542
0.07682646
0.07632348
0.0764359
0.07633804
0.07604576
0.07559273
0.07499116
0.07424298
0.07334763
0.0723003
0.07111105
0.06968467
0.06803752
0.06659164
0.06551962
0.0649453
0.064936
0.06549691
0.06657194
0.06804367
0.06973581
0.07125502
0.07248008
0.07355811
0.07450166
0.07530246
0.07595491
0.07645289
0.07678149
0.07690344
0.07679714
0.07632436
0.07643674
0.07633885
0.07604652
0.07559344
0.0749918
0.07424356
0.07334815
0.07230079
0.07111153
0.0696852
0.06803808
0.06659228
0.06552034
0.06494612
0.06493691
0.0654979
0.06657302
0.06804482
0.06973704
0.07125607
0.07248114
0.07355925
0.07450285
0.07530371
0.07595619
0.07645419
0.07678279
0.0769047
0.07679834
0.07635121
0.07646632
0.07637406
0.07609064
0.07565028
0.07506589
0.07434019
0.07347349
0.07246484
0.07133197
0.07005097
0.06847047
0.06708926
0.06606446
0.06551577
0.06550828
0.0660475
0.06707923
0.06848953
0.07011746
0.07148232
0.07264874
0.07369068
0.07460572
0.07538381
0.07601867
0.07650357
0.07682297
0.07693905
0.07682986
0.07640244
0.07652292
0.07644152
0.07617518
0.07575915
0.07520764
0.0745249
0.07371285
0.07277558
0.07173413
0.07061353
0.06926932
0.0680224
0.06708933
0.06658973
0.06658612
0.06708399
0.06803133
0.06931592
0.07072939
0.07189764
0.07296767
0.07394155
0.07480206
0.07553661
0.07613788
0.07659782
0.07689965
0.07700457
0.07688994
0.07647485
0.07660312
0.07653702
0.07629455
0.07591234
0.07540638
0.07478288
0.07404599
0.07320423
0.0722784
0.07131886
0.07034287
0.06927547
0.06847815
0.06804705
0.06804928
0.06849009
0.06931336
0.07043734
0.07145878
0.07245463
0.07340907
0.07429086
0.07507617
0.07575081
0.07630564
0.07673095
0.07700833
0.07709764
0.07697541
0.07656487
0.0767025
0.07665497
0.07644131
0.07609966
0.07564792
0.0750944
0.0744456
0.07371288
0.07291605
0.07210415
0.07132989
0.0706346
0.07007334
0.06971371
0.06972251
0.07010497
0.07071245
0.07144959
0.0722622
0.07310621
0.07393479
0.07470993
0.07540751
0.07601148
0.07651112
0.07689511
0.07714305
0.07721344
0.07708196
0.07666787
0.07681595
0.07678904
0.07660709
0.07630963
0.07591636
0.07543752
0.07488145
0.0742607
0.07359617
0.0729255
0.07229977
0.07176941
0.07138148
0.07117759
0.07119651
0.07143888
0.07186758
0.07243701
0.07309854
0.07380169
0.07450283
0.07516819
0.07577321
0.07630165
0.07674176
0.07708068
0.07729626
0.07734561
0.07720358
0.07677913
0.07693826
0.07693283
0.07678342
0.07653072
0.07619596
0.07579089
0.07532511
0.07481146
0.07427048
0.07373037
0.07323287
0.07281957
0.07252726
0.07238404
0.07240657
0.07259412
0.07292885
0.07338147
0.07391558
0.07449279
0.07507631
0.07563637
0.076151
0.07660474
0.07698532
0.07727863
0.07746104
0.0774885
0.07733523
0.0768942
0.07706448
0.07708027
0.07696236
0.07675231
0.07647256
0.07613604
0.07575307
0.07533623
0.0749036
0.07447836
0.07408998
0.07377065
0.07354833
0.07344347
0.07346675
0.07361751
0.07388421
0.07424621
0.07467652
0.07514553
0.07562464
0.07608952
0.07652132
0.07690574
0.07723042
0.0774803
0.07763064
0.07763651
0.07747188
0.07700896
0.07718998
0.07722563
0.07713657
0.0769649
0.07673414
0.07645819
0.07614781
0.07581469
0.0754739
0.07514423
0.07484632
0.07460402
0.07443797
0.07436308
0.0743871
0.0745098
0.0747231
0.07501208
0.0753569
0.07573537
0.07612569
0.07650859
0.07686825
0.07719174
0.07746675
0.07767757
0.07779849
0.07778406
0.07760847
0.07711917
0.07730986
0.07736287
0.07729851
0.07715943
0.07697021
0.07674564
0.07649655
0.07623337
0.07596818
0.07571527
0.07549003
0.07530905
0.07518765
0.07513667
0.07516183
0.07526309
0.07543469
0.07566584
0.07594211
0.07624716
0.07656462
0.07687955
0.07717897
0.0774513
0.07768444
0.07786209
0.0779577
0.0779254
0.0777399
0.07721933
0.07741741
0.07748372
0.07743858
0.07732539
0.07716989
0.07698743
0.07678839
0.07658166
0.07637664
0.07618398
0.07601511
0.07588156
0.07579462
0.07576221
0.07578852
0.0758736
0.07601333
0.07619994
0.07642295
0.07667039
0.0769301
0.07719062
0.07744146
0.0776725
0.07787203
0.07802336
0.07809904
0.07805277
0.07785955
0.07730035
0.07750109
0.07757424
0.07754153
0.07744741
0.0773183
0.07716928
0.07700974
0.07684692
0.07668801
0.07654095
0.07641418
0.07631603
0.0762547
0.07623611
0.07626338
0.07633659
0.07645278
0.07660629
0.07678943
0.07699337
0.07720898
0.07742746
0.07764043
0.07783922
0.07801294
0.07814501
0.07820748
0.07815341
0.077957
0.07734505
0.07753884
0.07760889
0.07758105
0.07749984
0.07739068
0.07726725
0.07713746
0.07700711
0.07688172
0.07676736
0.07667045
0.07659728
0.07655393
0.07654503
0.07657297
0.07663786
0.0767375
0.07686763
0.07702243
0.07719515
0.07737872
0.07756621
0.07775082
0.07792525
0.07807985
0.07819919
0.0782561
0.07820386
0.07801356
0.07732162
0.07748961
0.07754316
0.07751271
0.07743902
0.07734384
0.0772384
0.07712906
0.07702047
0.07691712
0.07682391
0.07674612
0.07668883
0.07665687
0.07665404
0.07668232
0.07674183
0.07683082
0.07694588
0.07708231
0.07723458
0.07739688
0.07756341
0.07772842
0.0778857
0.07802707
0.0781393
0.07819851
0.07816156
0.07799577
0.07720588
0.07732272
0.07735098
0.07731413
0.07724355
0.0771561
0.07706054
0.0769621
0.07686475
0.0767725
0.07668974
0.07662124
0.07657162
0.07654513
0.0765451
0.07657333
0.07662995
0.07671343
0.07682075
0.0769477
0.07708934
0.07724041
0.07739563
0.0775498
0.07769737
0.07783129
0.07794072
0.07800651
0.0779945
0.0778789
0.1655896
0.1656714
0.1656727
0.1655826
0.1654253
0.1652227
0.1649903
0.16474
0.1644832
0.1642323
0.1640011
0.163805
0.163659
0.1635768
0.163569
0.1636415
0.163795
0.1640247
0.1643211
0.1646712
0.1650593
0.165469
0.1658837
0.1662878
0.1666659
0.1670011
0.1672726
0.1674532
0.1675131
0.1674596
0.16566
0.1657944
0.1658314
0.1657514
0.1655854
0.1653619
0.1651011
0.1648177
0.1645251
0.1642377
0.1639715
0.1637438
0.1635716
0.1634707
0.163453
0.1635251
0.1636877
0.1639354
0.1642574
0.1646387
0.1650617
0.1655076
0.1659582
0.1663956
0.1668023
0.1671586
0.167439
0.1676094
0.1676332
0.1675261
0.1656413
0.1658114
0.1658738
0.1657937
0.1656039
0.1653387
0.1650229
0.1646755
0.1643134
0.1639545
0.1636189
0.1633281
0.1631035
0.1629647
0.1629267
0.1629974
0.1631776
0.1634605
0.1638323
0.1642745
0.164765
0.165281
0.1658
0.1663005
0.1667614
0.167159
0.1674629
0.1676334
0.1676317
0.1674884
0.1655242
0.1657045
0.165767
0.1656657
0.1654319
0.1651019
0.1647041
0.1642613
0.1637948
0.1633277
0.1628861
0.1624984
0.1621928
0.1619953
0.1619255
0.1619937
0.1622008
0.1625374
0.1629855
0.1635204
0.1641134
0.1647346
0.1653555
0.1659495
0.166491
0.1669524
0.1673
0.1674918
0.1674903
0.1673367
0.1653346
0.1655062
0.1655453
0.1654002
0.1650999
0.1646805
0.1641721
0.1636006
0.1629922
0.1623767
0.1617887
0.1612661
0.1608472
0.1605675
0.160453
0.1605177
0.1607623
0.1611742
0.1617287
0.1623924
0.1631266
0.163892
0.1646515
0.1653716
0.166022
0.1665719
0.1669859
0.1672218
0.167244
0.1670993
0.1650951
0.1652459
0.1652437
0.1650346
0.1646454
0.164111
0.163462
0.1627265
0.1619359
0.161128
0.1603484
0.159648
0.1590791
0.1586901
0.1585162
0.1585763
0.1588712
0.1593834
0.1600791
0.1609127
0.1618321
0.1627848
0.1637228
0.1646044
0.1653941
0.1660585
0.1665616
0.1668621
0.1669262
0.1668026
0.1648221
0.1649447
0.1648883
0.1645983
0.1640996
0.1634253
0.1626053
0.1616696
0.1606543
0.1596068
0.1585861
0.1576602
0.1569003
0.1563717
0.156122
0.1561767
0.1565367
0.1571777
0.158054
0.1591035
0.1602563
0.1614431
0.162602
0.1636821
0.1646421
0.1654467
0.1660601
0.1664423
0.1665614
0.1664666
0.1645286
0.1646183
0.1644988
0.1641148
0.1634891
0.1626526
0.1616335
0.1604625
0.1591806
0.1578454
0.156532
0.1553298
0.1543346
0.1536332
0.1532895
0.1533381
0.1537799
0.1545819
0.1556818
0.1569965
0.1584332
0.1599018
0.1613242
0.1626386
0.1637983
0.1647664
0.165508
0.1659854
0.1661687
0.1661075
0.1642263
0.1642807
0.1640927
0.1636061
0.162841
0.1618248
0.1605835
0.1591475
0.1575619
0.1558945
0.1542389
0.1527104
0.1514341
0.1505235
0.1500647
0.150106
0.1506489
0.1516473
0.1530168
0.1546466
0.1564162
0.158211
0.1599347
0.1615142
0.1628977
0.1640474
0.1649304
0.1655121
0.1657652
0.1657403
0.1639281
0.1639465
0.1636883
0.1630957
0.1621853
0.1609802
0.1595029
0.1577825
0.1558668
0.1538333
0.1517955
0.1498954
0.1482896
0.1471248
0.1465207
0.1465518
0.1472213
0.1484603
0.1501499
0.152143
0.1542874
0.1564428
0.1584948
0.1603598
0.1619816
0.1633228
0.1643537
0.1650435
0.1653685
0.1653805
0.1636478
0.1636316
0.1633056
0.1626097
0.1615563
0.1601641
0.1584507
0.1564424
0.1541887
0.1517747
0.1493308
0.1470205
0.1450225
0.1435328
0.1427324
0.1427491
0.1435899
0.1451399
0.1472153
0.1496152
0.1521617
0.1546944
0.1570836
0.1592379
0.1610987
0.1626303
0.1638069
0.1646025
0.164997
0.1650446
0.1634002
0.163353
0.1629656
0.1621757
0.1609916
0.1594267
0.1574938
0.1552156
0.1526406
0.1498589
0.1470057
0.1442406
0.1417378
0.1398124
0.1387938
0.1387945
0.1398237
0.141785
0.1443678
0.1472259
0.1501826
0.1530825
0.1557932
0.1582194
0.1603028
0.1620103
0.1633206
0.1642125
0.16467
0.1647496
0.1631995
0.1631269
0.162689
0.1618213
0.1605283
0.1588189
0.1567012
0.1541939
0.1513426
0.1482369
0.1449957
0.1417318
0.1387559
0.1365568
0.1353839
0.1353716
0.1365311
0.1387473
0.1417805
0.1451534
0.1485052
0.1517319
0.1547193
0.1573768
0.1596478
0.1615028
0.1629246
0.1638963
0.1644059
0.1645117
0.1630589
0.162968
0.162494
0.1615704
0.1601992
0.1583857
0.1561343
0.1534604
0.1504057
0.1470534
0.1434983
0.1398078
0.1365638
0.1341654
0.132883
0.1328616
0.1341135
0.1365153
0.139809
0.1436024
0.1472802
0.1507576
0.1539492
0.1567748
0.1591817
0.1611431
0.162645
0.1636741
0.1642207
0.164345
0.1629872
0.1628869
0.1623939
0.1614412
0.160029
0.1581608
0.1558392
0.1530775
0.1499143
0.1464262
0.1426884
0.1387941
0.1354051
0.1329022
0.1315627
0.1315368
0.1328372
0.1353366
0.1387713
0.1427675
0.1466325
0.1502478
0.1535481
0.1564624
0.1589407
0.1609579
0.1625018
0.1635607
0.1641267
0.1642606
0.1629896
0.1628892
0.1623962
0.1614433
0.1600309
0.1581626
0.1558408
0.1530789
0.1499155
0.1464274
0.1426896
0.1387953
0.1354065
0.1329038
0.1315646
0.1315388
0.1328395
0.135339
0.1387739
0.1427702
0.1466352
0.1502506
0.1535511
0.1564655
0.1589439
0.1609612
0.1625052
0.1635642
0.1641301
0.1642639
0.1630659
0.1629749
0.1625005
0.1615766
0.1602049
0.1583908
0.1561389
0.1534645
0.1504094
0.147057
0.1435019
0.1398116
0.136568
0.1341701
0.1328884
0.1328677
0.1341202
0.1365225
0.1398167
0.1436103
0.1472882
0.1507659
0.153958
0.1567841
0.1591913
0.161153
0.162655
0.1636841
0.1642306
0.1643547
0.163211
0.1631381
0.1626997
0.1618313
0.1605376
0.1588274
0.1567088
0.1542007
0.1513488
0.1482427
0.1450015
0.1417379
0.1387627
0.1365644
0.1353925
0.1353813
0.1365418
0.1387588
0.1417928
0.1451658
0.148518
0.1517454
0.1547335
0.1573916
0.1596632
0.1615187
0.1629407
0.1639125
0.1644219
0.1645272
0.1634153
0.1633678
0.1629799
0.1621893
0.1610043
0.1594383
0.1575043
0.155225
0.1526491
0.1498669
0.1470136
0.1442488
0.1417469
0.1398224
0.1388051
0.138807
0.1398375
0.1418
0.1443831
0.1472419
0.1501995
0.1531005
0.1558122
0.1582394
0.1603235
0.1620317
0.1633424
0.1642344
0.1646918
0.164771
0.1636661
0.1636497
0.1633231
0.1626263
0.161572
0.1601785
0.1584638
0.1564543
0.1541995
0.1517847
0.1493405
0.1470303
0.1450331
0.1435445
0.1427454
0.1427636
0.1436057
0.1451566
0.147233
0.149634
0.1521819
0.154716
0.1571067
0.1592622
0.1611241
0.1626567
0.1638339
0.1646298
0.1650243
0.1650717
0.163949
0.1639671
0.1637083
0.1631149
0.1622033
0.1609971
0.1595184
0.1577966
0.1558796
0.1538452
0.1518069
0.1499067
0.1483012
0.1471374
0.1465344
0.1465668
0.1472377
0.148478
0.1501691
0.1521639
0.15431
0.1564672
0.158521
0.1603875
0.1620107
0.1633531
0.1643848
0.1650752
0.1654003
0.1654123
0.164249
0.164303
0.1641144
0.163627
0.1628609
0.1618436
0.1606009
0.1591635
0.1575766
0.1559081
0.1542517
0.1527228
0.1514466
0.1505366
0.1500787
0.1501212
0.1506655
0.1516656
0.1530369
0.1546686
0.1564403
0.1582372
0.159963
0.1615444
0.1629295
0.1640806
0.1649647
0.1655471
0.1658007
0.1657758
0.1645519
0.1646413
0.1645213
0.1641367
0.1635102
0.1626726
0.1616523
0.16048
0.1591969
0.1578604
0.156546
0.1553432
0.1543477
0.1536466
0.1533035
0.1533532
0.1537964
0.1546001
0.1557021
0.157019
0.1584581
0.159929
0.1613537
0.1626703
0.1638319
0.1648017
0.1655446
0.166023
0.1662068
0.1661458
0.1648451
0.1649675
0.1649108
0.1646203
0.164121
0.163446
0.1626251
0.1616882
0.1606717
0.1596229
0.1586011
0.1576743
0.1569138
0.1563852
0.1561359
0.1561915
0.1565528
0.1571955
0.1580739
0.1591258
0.1602811
0.1614704
0.1626319
0.1637144
0.1646767
0.1654832
0.1660982
0.1664815
0.1666013
0.1665067
0.1651169
0.1652677
0.1652653
0.165056
0.1646665
0.1641317
0.163482
0.1627456
0.1619539
0.1611447
0.1603639
0.1596625
0.1590928
0.1587035
0.1585298
0.1585905
0.1588866
0.1594003
0.1600981
0.1609341
0.1618561
0.1628116
0.1637523
0.1646366
0.1654288
0.1660955
0.1666004
0.1669022
0.1669672
0.1668438
0.1653546
0.1655262
0.1655654
0.1654205
0.1651202
0.1647007
0.1641919
0.1636198
0.1630104
0.1623937
0.1618045
0.1612807
0.1608608
0.1605806
0.1604659
0.160531
0.1607765
0.1611899
0.1617464
0.1624124
0.1631494
0.1639177
0.1646801
0.1654031
0.1660563
0.1666087
0.1670248
0.1672622
0.1672854
0.1671411
0.1655422
0.1657226
0.1657854
0.1656846
0.1654512
0.1651214
0.1647235
0.1642802
0.1638129
0.1633446
0.1629017
0.1625127
0.162206
0.1620078
0.1619376
0.162006
0.1622138
0.1625517
0.1630017
0.1635389
0.1641345
0.1647588
0.1653828
0.16598
0.1665245
0.1669886
0.1673386
0.1675321
0.1675316
0.1673785
0.1656571
0.1658275
0.1658905
0.1658112
0.1656221
0.1653574
0.1650417
0.164694
0.1643311
0.1639711
0.1636342
0.163342
0.1631161
0.1629764
0.1629378
0.1630085
0.1631893
0.1634733
0.1638469
0.1642913
0.1647846
0.1653037
0.1658259
0.1663298
0.1667939
0.1671945
0.1675009
0.1676732
0.1676727
0.16753
0.1656742
0.165809
0.1658468
0.1657678
0.1656027
0.16538
0.1651194
0.1648357
0.1645425
0.164254
0.1639864
0.1637572
0.1635836
0.1634816
0.1634632
0.1635352
0.1636982
0.163947
0.1642706
0.1646542
0.1650799
0.165529
0.1659829
0.1664238
0.1668339
0.1671932