/*--------------------------------*- C++ -*----------------------------------*\
| =========                 |                                                 |
| \\      /  F ield         | OpenFOAM: The Open Source CFD Toolbox           |
|  \\    /   O peration     | Version:  2506                                  |
|   \\  /    A nd           | Website:  www.openfoam.com                      |
|    \\/     M anipulation  |                                                 |
\*---------------------------------------------------------------------------*/
FoamFile
{
    version     2.0;
    format      ascii;
    arch        "LSB;label=32;scalar=64";
    class       surfaceScalarField;
    location    "2500/air";
    object      phi;
}
// * * * * * * * * * * * * * * * * * * * * * * * * * * * * * * * * * * * * * //

dimensions      [1 0 -1 0 0 0 0];

oriented        oriented;

internalField   nonuniform List<scalar> 
98844
(
-0.006133368
-0.006568821
-0.005510423
-0.004480627
-0.007996699
-0.005032884
-0.003416848
-0.009120267
-0.004636933
-0.002672342
-0.009918654
-0.004374493
-0.002107451
-0.01047105
-0.004194785
-0.001653374
-0.01084894
-0.004067415
-0.001273669
-0.01110357
-0.003975281
-0.0009477627
-0.01127042
-0.003907473
-0.0006634013
-0.01137486
-0.003856978
-0.0004127251
-0.01143616
-0.003819311
-0.0001901571
-0.01146926
-0.003791548
8.516673e-06
-0.01148594
-0.003771709
0.000189511
-0.01149649
-0.00375889
0.0003594645
-0.01150761
-0.003752976
0.0005235039
-0.0115231
-0.003753888
0.0006878151
-0.01154563
-0.003761795
0.0008588543
-0.01157515
-0.003776839
0.001042996
-0.011609
-0.003799139
0.001246335
-0.01164233
-0.003828985
0.001474707
-0.01166779
-0.003866871
0.001734002
-0.01167555
-0.003913691
0.002030866
-0.01165339
-0.003971101
0.002373979
-0.01158581
-0.004041769
0.002776249
-0.01145279
-0.004129909
0.003258826
-0.01122791
-0.004242295
0.003858886
-0.01087419
-0.004389738
0.004646731
-0.01033797
-0.004589611
0.005766321
-0.009543746
-0.004873549
0.007500054
-0.008405812
-0.005295986
-0.006939015
-0.005802063
-0.007566845
-0.004934931
-0.005031858
-0.005391749
-0.005837865
-0.004333928
-0.003988779
-0.00667382
-0.003849416
-0.003022576
-0.007329261
-0.003555595
-0.002313652
-0.007813314
-0.003366664
-0.001764969
-0.008157856
-0.003239765
-0.001322651
-0.008394257
-0.003151633
-0.0009560157
-0.008548535
-0.003088518
-0.0006468608
-0.00864178
-0.003042234
-0.0003836383
-0.008691518
-0.003007863
-0.0001581513
-0.008712395
-0.002982353
3.652588e-05
-0.008716728
-0.002963886
0.0002073389
-0.008715073
-0.002952231
0.0003618425
-0.008714993
-0.002947119
0.0005080753
-0.008721458
-0.002947875
0.0006545127
-0.008737367
-0.002954702
0.0008098026
-0.008762695
-0.002967742
0.0009824166
-0.008794511
-0.002987105
0.001180448
-0.008827328
-0.003013034
0.001411693
-0.008853061
-0.003045973
0.001684147
-0.008861212
-0.003086791
0.002007107
-0.008839186
-0.003137164
0.002393108
-0.008771864
-0.003199943
0.002861257
-0.008641067
-0.00327987
0.003443183
-0.00842482
-0.003385017
0.004194095
-0.008095864
-0.003529242
0.00521356
-0.007621027
-0.00373641
0.006686889
-0.006965802
-0.004051272
0.008963582
-0.006117655
-0.00456485
-0.005188196
-0.005299585
-0.008691061
-0.003884355
-0.004636295
-0.006232421
-0.004446635
-0.003849868
-0.004579973
-0.005030499
-0.003295768
-0.003419271
-0.005526774
-0.002963188
-0.002565785
-0.005912827
-0.002753971
-0.001911735
-0.006194849
-0.002617056
-0.001393761
-0.006388056
-0.002524173
-0.000974396
-0.006509211
-0.002458687
-0.0006308609
-0.006574427
-0.002410887
-0.0003484552
-0.006598836
-0.002375086
-0.0001166156
-0.006596329
-0.002347905
7.370756e-05
-0.006579413
-0.002327637
0.0002318832
-0.006559157
-0.00231409
0.000367968
-0.006544026
-0.002307051
0.0004927267
-0.006540109
-0.002306106
0.0006176218
-0.006550734
-0.002311527
0.0007543103
-0.006575931
-0.002323451
0.0009141442
-0.006612433
-0.002341911
0.001107867
-0.006654054
-0.002366995
0.00134569
-0.00669189
-0.002398993
0.001637949
-0.006714792
-0.002438678
0.001996522
-0.006709983
-0.002487775
0.002437287
-0.006663163
-0.002549466
0.002984146
-0.006558618
-0.002629307
0.003675784
-0.006379481
-0.002736977
0.004577283
-0.006108006
-0.002889356
0.005799495
-0.005727692
-0.003115547
0.00753336
-0.005230751
-0.003468915
0.01010752
-0.004638258
-0.004053556
-0.004059443
-0.004879463
-0.009486545
-0.003148834
-0.004372549
-0.00688938
-0.003488659
-0.003555139
-0.0050808
-0.003876462
-0.002962615
-0.003776437
-0.004227098
-0.002604038
-0.002802355
-0.004509018
-0.002377889
-0.002051863
-0.004715318
-0.002230022
-0.001459509
-0.004850661
-0.002129747
-0.0009853394
-0.004924679
-0.002058701
-0.0006044827
-0.004949188
-0.002006095
-0.0003005327
-0.004937099
-0.001965685
-6.141328e-05
-0.004901582
-0.001933865
0.0001238439
-0.004855409
-0.001909259
0.0002671281
-0.004810611
-0.00189183
0.0003812694
-0.004776656
-0.001881509
0.0004803603
-0.00476082
-0.001878378
0.0005794925
-0.004767034
-0.001882832
0.000694
-0.004795422
-0.001895016
0.0008386876
-0.004842307
-0.001914813
0.00102731
-0.004900638
-0.001942038
0.001272558
-0.004960479
-0.001976659
0.00158678
-0.005009821
-0.002019193
0.001983642
-0.005035583
-0.002071261
0.002480896
-0.005024188
-0.002136229
0.003104693
-0.004962187
-0.002220228
0.003896368
-0.004837096
-0.002334059
0.004923275
-0.004638499
-0.002496414
0.006295344
-0.004360832
-0.002738928
0.008192923
-0.004010099
-0.00311823
0.01091401
-0.003617333
-0.003742015
-0.00326847
-0.00459956
-0.01003401
-0.002590543
-0.004190009
-0.007372777
-0.00278582
-0.003364068
-0.00546931
-0.003028116
-0.002751813
-0.004062974
-0.003256915
-0.002376518
-0.002993372
-0.0034419
-0.002136719
-0.002159903
-0.003570997
-0.001977789
-0.001499391
-0.003642972
-0.0018682
-0.0009726341
-0.003662747
-0.001788688
-0.0005549502
-0.003639022
-0.001727848
-0.0002298202
-0.003583094
-0.001679134
1.524854e-05
-0.003507681
-0.001638968
0.000192995
-0.003426525
-0.00160663
0.0003172667
-0.003352369
-0.001582511
0.0004039706
-0.003296475
-0.001566884
0.000471132
-0.003267399
-0.001560581
0.0005381718
-0.003269815
-0.001564257
0.0006248074
-0.003303976
-0.001578081
0.0007498662
-0.003365687
-0.001601678
0.0009304103
-0.003446803
-0.001634377
0.001181518
-0.003536036
-0.00167555
0.001517008
-0.003620152
-0.001725157
0.001951298
-0.00368542
-0.001784452
0.002502412
-0.003718584
-0.001856716
0.003196412
-0.003707826
-0.00194836
0.004073953
-0.003643819
-0.002070817
0.005200139
-0.003520979
-0.002243706
0.006678755
-0.003339893
-0.002499554
0.008676326
-0.003112155
-0.002895515
0.01146637
-0.002868088
-0.003539285
-0.002669059
-0.004405243
-0.0104055
-0.002141847
-0.004058594
-0.007715164
-0.002242118
-0.003234038
-0.005752329
-0.002378464
-0.002612485
-0.004272547
-0.002510086
-0.002226609
-0.003127284
-0.002611255
-0.001975907
-0.002223216
-0.002668823
-0.001806241
-0.001501498
-0.002678728
-0.001685962
-0.0009257172
-0.0026431
-0.001595426
-0.000473132
-0.002568671
-0.001522935
-0.0001285362
-0.00246582
-0.001461868
0.0001199091
-0.002346768
-0.001409357
0.0002860333
-0.002227466
-0.001365182
0.0003854649
-0.002121249
-0.00133055
0.0004374923
-0.002041525
-0.001306975
0.0004646011
-0.001998425
-0.001296082
0.0004913226
-0.001997516
-0.001299019
0.0005425546
-0.002039209
-0.001315997
0.0006417909
-0.002118696
-0.001346225
0.0008097189
-0.002226502
-0.001388228
0.001063672
-0.002349624
-0.001440364
0.001418296
-0.002473159
-0.001501616
0.001887697
-0.002582343
-0.001572477
0.002488719
-0.002663774
-0.001655832
0.003245525
-0.002706573
-0.001758057
0.004195976
-0.002703412
-0.001890857
0.005400782
-0.002651554
-0.002074232
0.006956273
-0.002554557
-0.002340827
0.009016736
-0.002425313
-0.002747305
0.01183882
-0.002289786
-0.003400384
-0.002189468
-0.004264492
-0.01065252
-0.001767018
-0.003961488
-0.007948274
-0.00180433
-0.003142032
-0.005945499
-0.001864653
-0.002516585
-0.004410264
-0.001921502
-0.002123819
-0.00320332
-0.001954103
-0.001864094
-0.00223823
-0.001950032
-0.001683879
-0.001461195
-0.001904124
-0.001551637
-0.0008397656
-0.00181698
-0.001447548
-0.0003545259
-0.001694116
-0.001359793
6.591976e-06
-0.00154516
-0.001281776
0.0002561683
-0.001384368
-0.001211975
0.0004059412
-0.001226091
-0.001151146
0.0004737618
-0.001087474
-0.001101594
0.000482683
-0.0009837772
-0.001066667
0.0004603378
-0.0009267796
-0.001049298
0.0004372222
-0.0009229837
-0.001051414
0.0004442788
-0.0009729542
-0.00107331
0.0005104494
-0.001071314
-0.001113551
0.0006604288
-0.001207074
-0.001169406
0.000913691
-0.001365242
-0.001237642
0.001284952
-0.001528723
-0.001315696
0.001786992
-0.00168156
-0.001402822
0.002434226
-0.001809855
-0.001501152
0.003247597
-0.001903159
-0.001616784
0.00426096
-0.001955305
-0.00176147
0.005529848
-0.001965086
-0.001955355
0.007143464
-0.001937224
-0.002230948
0.009246421
-0.001883991
-0.002644279
0.01208427
-0.001826465
-0.003301174
-0.001791618
-0.00415959
-0.01081059
-0.001445847
-0.003888047
-0.008098296
-0.001442094
-0.003074531
-0.006065828
-0.001449428
-0.002447692
-0.004486056
-0.001451289
-0.002049984
-0.003226748
-0.001431196
-0.001782214
-0.002207477
-0.001378047
-0.001591256
-0.001379549
-0.001286437
-0.001445614
-0.0007150244
-0.001156207
-0.001325295
-0.00019848
-0.0009923249
-0.001218333
0.0001779598
-0.0008027763
-0.001118822
0.0004246886
-0.0006052609
-0.001025834
0.0005530906
-0.0004122687
-0.000942222
0.000582431
-0.0002443935
-0.0008724189
0.0005394856
-0.0001188804
-0.0008219491
0.0004578816
-4.947476e-05
-0.0007956987
0.0003750186
-4.331861e-05
-0.0007968
0.0003287486
-0.0001009757
-0.0008257066
0.0003544496
-0.0002170145
-0.0008799986
0.0004811579
-0.000378677
-0.0009551034
0.000730404
-0.0005690345
-0.001045452
0.00111605
-0.000768158
-0.001146209
0.001648723
-0.000959432
-0.0012548
0.002339307
-0.001128167
-0.001372271
0.003204575
-0.00126416
-0.001504266
0.004273727
-0.001361935
-0.001662521
0.005597015
-0.001421068
-0.001867305
0.007257368
-0.001446526
-0.002151051
0.00939201
-0.00144928
-0.002569352
0.0122392
-0.001446103
-0.003227555
-0.001453866
-0.004079432
-0.01090505
-0.001166185
-0.003831454
-0.008186346
-0.001137268
-0.003023528
-0.006129523
-0.001109979
-0.00239627
-0.004511896
-0.001074422
-0.001994492
-0.003206486
-0.001017564
-0.00171904
-0.002137942
-0.0009297197
-0.001516869
-0.001262448
-0.0008056112
-0.001356318
-0.0005570622
-0.0006445358
-0.001217055
-1.173382e-05
-0.0004509648
-0.001086687
0.0003792315
-0.0002336936
-0.0009600459
0.0006210605
-9.285606e-06
-0.0008378022
0.0007245788
0.0002089154
-0.0007247002
0.0007100668
0.000397844
-0.0006277233
0.0006075368
0.0005396905
-0.0005560385
0.0004567809
0.000618904
-0.0005176206
0.0003038997
0.0006269407
-0.000517376
0.0001960693
0.0005628497
-0.0005559931
0.0001754605
0.0004333065
-0.0006297102
0.0002752538
0.0002525394
-0.0007310078
0.0005176284
3.918759e-05
-0.0008505951
0.0009157304
-0.0001855412
-0.0009807175
0.001477612
-0.0004049531
-0.001116359
0.002209405
-0.0006027072
-0.001257251
0.003123111
-0.0007692771
-0.001408588
0.004242972
-0.0008996333
-0.001582162
0.005614184
-0.0009937722
-0.001798507
0.007314326
-0.001056482
-0.002090186
0.009475021
-0.001097295
-0.002512679
0.01232967
-0.001129472
-0.003171276
-0.001163088
-0.004017033
-0.01095499
-0.0009200957
-0.003787333
-0.008229847
-0.0008781834
-0.002984225
-0.006151667
-0.0008313958
-0.002356761
-0.004500681
-0.0007741722
-0.001951235
-0.003153846
-0.0006962115
-0.001668186
-0.002039994
-0.0005892245
-0.001454346
-0.001119628
-0.0004483569
-0.001277618
-0.0003744023
-0.0002726954
-0.001117064
0.0001995495
-6.509037e-05
-0.0009598242
0.0006038236
0.0001631612
-0.0008011266
0.0008375915
0.0004003306
-0.0006433819
0.0009125522
0.0006281599
-0.0004942028
0.0008488784
0.0008258918
-0.0003643715
0.0006813224
0.0009744551
-0.000267206
0.0004565547
0.001058097
-0.0002144232
0.0002289517
0.001067091
-0.000212545
5.40461e-05
0.001000394
-0.0002626364
-1.818577e-05
0.0008652626
-0.000359722
4.99136e-05
0.0006771853
-0.0004927432
0.00028242
0.0004549124
-0.0006482295
0.0006930285
0.0002179797
-0.000814128
0.001283318
-1.337996e-05
-0.0009818614
0.002054411
-0.0002235795
-0.001150219
0.003013574
-0.0004049305
-0.001323509
0.004180052
-0.0005522028
-0.001513907
0.00559438
-0.0006656418
-0.001742458
0.007329677
-0.0007496511
-0.002042127
0.009513319
-0.0008123264
-0.00246861
0.01237542
-0.0008640809
-0.003127495
-0.0009105428
-0.003968067
-0.01097503
-0.000701672
-0.003752712
-0.008243236
-0.000656312
-0.002953666
-0.006145968
-0.0006027336
-0.002325928
-0.004465452
-0.0005378881
-0.001916799
-0.003081593
-0.000453767
-0.001626302
-0.001926654
-0.0003434742
-0.001400688
-0.0009649707
-0.0002028637
-0.001207175
-0.0001821661
-3.164345e-05
-0.001023855
0.0004180014
0.0001719797
-0.0008372354
0.000833279
0.0003913675
-0.0006434817
0.001060669
0.0006198665
-0.000446923
0.001106729
0.0008391674
-0.0002570656
0.000993265
0.001030513
-9.115446e-05
0.0007593148
0.001173377
3.503096e-05
0.0004570695
0.001252737
0.0001076083
0.0001510487
0.001261666
0.0001114491
-9.305613e-05
0.001198842
4.565979e-05
-0.0002179162
0.001069874
-7.974859e-05
-0.0001813763
0.0008881341
-0.0002474864
4.278701e-05
0.0006739535
-0.0004432024
0.0004633289
0.000446133
-0.0006486936
0.001079221
0.0002227767
-0.0008520473
0.001887741
1.786526e-05
-0.001049963
0.002888998
-0.0001593331
-0.001246853
0.004097901
-0.0003062432
-0.001454862
0.005550889
-0.0004227612
-0.001695867
0.007317457
-0.0005127112
-0.002003507
0.009521805
-0.0005827117
-0.002433963
0.01239182
-0.0006407277
-0.003093369
-0.0006895431
-0.003929892
-0.01097679
-0.0005046888
-0.003724881
-0.008238558
-0.0004644983
-0.00293004
-0.006124676
-0.0004146286
-0.002301986
-0.004418769
-0.0003542968
-0.001889497
-0.003002915
-0.0002775742
-0.001592045
-0.001812116
-0.0001790039
-0.001355268
-0.0008143521
-5.513496e-05
-0.001145491
-5.654224e-07
9.431701e-05
-0.0009397451
0.0006267225
0.0002689097
-0.0007242157
0.001052855
0.000460345
-0.0004951072
0.00127293
0.0006582433
-0.0002584491
0.001292581
0.0008492033
-2.96846e-05
0.001130148
0.001012806
0.0001801446
0.0008323646
0.001136359
0.0003348049
0.0004581081
0.001206006
0.0004209906
7.88375e-05
0.001213994
0.0004269448
-0.0002311148
0.001158897
0.0003499002
-0.0004082741
0.001047477
0.0001995584
-0.0004011294
0.0008920801
-1.108818e-05
-0.0001864414
0.0007052944
-0.0002460267
0.0002434909
0.0005087297
-0.000492527
0.0008844183
0.0003141991
-0.0007323481
0.00172545
0.0001364585
-0.0009596231
0.002764078
-1.852471e-05
-0.001179436
0.004010131
-0.0001476307
-0.001404664
0.005496638
-0.0002516531
-0.001657615
0.007290281
-0.0003335174
-0.001972836
0.009512955
-0.0003982255
-0.002407159
0.01239106
-0.0004514427
-0.003067392
-0.0004940403
-0.003901087
-0.01097026
-0.0003263216
-0.003706713
-0.008225958
-0.0002959341
-0.00291286
-0.006098498
-0.0002578957
-0.002284192
-0.004372152
-0.0002118678
-0.001868773
-0.002930442
-0.0001538978
-0.001565385
-0.001710252
-8.017112e-05
-0.001319021
-0.0006818654
1.166283e-05
-0.001095182
0.0001605056
0.00012213
-0.0008701818
0.0008061722
0.0002512613
-0.0006280159
0.001241009
0.0003924566
-0.0003669462
0.001455858
0.0005387325
-9.533504e-05
0.001449831
0.0006783137
0.0001769199
0.001247931
0.0007998975
0.0004148117
0.0008956724
0.0008913141
0.0005973063
0.0004590449
0.0009429084
0.0006997286
1.644399e-05
0.0009489611
0.0007076376
-0.0003500123
0.0009079942
0.000617362
-0.0005690979
0.0008254769
0.0004410892
-0.000590319
0.0007098114
0.0002034926
-0.0003831328
0.0005735715
-7.546106e-05
5.50913e-05
0.0004274849
-0.0003569772
0.0007161862
0.0002833984
-0.0006302924
0.001584909
0.0001521532
-0.0008844155
0.00265374
3.707781e-05
-0.001124433
0.003930004
-5.918937e-05
-0.001364704
0.005443598
-0.0001371514
-0.001628095
0.00725922
-0.0001991487
-0.00194999
0.00949723
-0.0002482754
-0.00238796
0.01238321
-0.000288146
-0.003049277
-0.0003181352
-0.003881539
-0.01096125
-0.0001589243
-0.003692263
-0.008212921
-0.0001432163
-0.002901047
-0.006075965
-0.0001227151
-0.002272135
-0.004335277
-9.794012e-05
-0.001854615
-0.002875354
-6.692337e-05
-0.001546896
-0.001634345
-2.768469e-05
-0.001293493
-0.0005843909
2.109891e-05
-0.001059388
0.0002772435
7.979439e-05
-0.0008192966
0.0009375826
0.0001482107
-0.0005572862
0.001379072
0.0002231885
-0.0002722182
0.001589256
0.000301505
2.70459e-05
0.001565658
0.0003748729
0.000327043
0.001334192
0.0004392695
0.0005920967
0.0009420876
0.000487825
0.0007955973
0.0004594442
0.0005151806
0.0009103745
-2.968745e-05
0.0005183247
0.0009197715
-0.0004374482
0.0004962811
0.0008194771
-0.0006878751
0.0004521115
0.0006237954
-0.0007280156
0.0003904592
0.0003594956
-0.0005279188
0.0003180414
5.543574e-05
-8.353718e-05
0.0002398374
-0.000256732
0.0005919306
0.0001631486
-0.0005552163
0.001480649
9.328018e-05
-0.0008298437
0.002571462
3.186413e-05
-0.001085597
0.003869134
-1.957207e-05
-0.001337288
0.005401794
-6.122963e-05
-0.001608581
0.007233225
-9.436487e-05
-0.001936212
0.009482581
-0.000120593
-0.002377038
0.01237545
-0.0001416113
-0.0030394
-0.0001567259
-0.003871667
-0.01095512
1.280047e-06
-0.003685493
-0.008204841
1.35957e-06
-0.002894853
-0.006063109
1.331785e-06
-0.002265778
-0.004315075
1.212032e-06
-0.001847185
-0.002845785
1.020866e-06
-0.001537233
-0.001594065
7.72071e-07
-0.001280174
-0.0005328103
4.799773e-07
-0.001040634
0.0003390446
1.587096e-07
-0.0007922169
0.001006901
-1.769911e-07
-0.0005194656
0.001452233
-5.200349e-07
-0.0002216212
0.001658661
-8.836077e-07
9.596383e-05
0.00162678
-1.279782e-06
0.0004080372
0.001379675
-1.698893e-06
0.0006880768
0.000966443
-2.126544e-06
0.000903187
0.0004593521
-2.550387e-06
0.001024825
-5.439524e-05
-2.958437e-06
0.001035034
-0.0004839726
-3.344731e-06
0.0009292063
-0.000750968
-3.694904e-06
0.000722805
-0.0008005217
-4.019234e-06
0.000444035
-0.0006045749
-4.319559e-06
0.0001264168
-0.0001571849
-4.589596e-06
-0.0002029608
0.0005257939
-4.842261e-06
-0.000514986
0.001425099
-5.087073e-06
-0.0008009365
0.002527478
-5.32172e-06
-0.001065191
0.003836356
-5.485933e-06
-0.001322963
0.005379001
-5.551985e-06
-0.001598321
0.007218686
-5.433349e-06
-0.001928615
0.009474009
-5.005362e-06
-0.002370909
0.0123705
-4.151095e-06
-0.003033948
-2.880029e-06
-0.003866653
-0.01095509
0.00016143
-0.003685306
-0.008204909
0.0001459253
-0.002894749
-0.006063244
0.0001253782
-0.00226571
-0.004315259
0.0001003668
-0.001847138
-0.002846007
6.897013e-05
-0.0015372
-0.001594313
2.923543e-05
-0.001280155
-0.0005330789
-2.012959e-05
-0.001040623
0.0003387697
-7.946942e-05
-0.0007922182
0.001006623
-0.0001485552
-0.0005194727
0.001451949
-0.0002242146
-0.0002216281
0.00165836
-0.0003032516
9.595907e-05
0.001626471
-0.0003774169
0.0004080298
0.001379368
-0.0004426526
0.0006880599
0.0009661446
-0.0004920576
0.0009031584
0.0004590653
-0.0005202519
0.001024784
-5.466743e-05
-0.0005242029
0.001034981
-0.0004842297
-0.0005029198
0.0009291406
-0.0007512108
-0.0004594354
0.0007227247
-0.0008007527
-0.0003984157
0.0004439413
-0.0006047876
-0.0003265887
0.0001263066
-0.0001573915
-0.0002488887
-0.0002030949
0.0005255822
-0.0001726803
-0.0005151336
0.001424886
-0.0001032812
-0.0008011079
0.002527303
-4.2328e-05
-0.00106541
0.003836253
8.761214e-06
-0.001323195
0.005379047
5.026381e-05
-0.001598608
0.007218995
8.359607e-05
-0.001928976
0.009474707
0.0001106579
-0.002371374
0.01237174
0.0001334048
-0.00303459
0.0001512159
-0.003867632
-0.01096103
0.0003287252
-0.003691555
-0.008213095
0.0002987044
-0.002900717
-0.006076359
0.0002605735
-0.00227193
-0.004335823
0.0002143035
-0.001854471
-0.002876016
0.0001559586
-0.001546795
-0.001635087
8.173992e-05
-0.001293431
-0.0005851934
-1.066378e-05
-0.001059357
0.0002764225
-0.0001217819
-0.0008193013
0.0009367599
-0.0002515835
-0.0005573066
0.001378232
-0.0003934516
-0.000272232
0.001588361
-0.000540427
2.704973e-05
0.001564742
-0.0006808264
0.0003270313
0.00133329
-0.0008032483
0.0005920517
0.0009412126
-0.0008954959
0.0007955191
0.0004586024
-0.0009479011
0.0009102628
-3.048867e-05
-0.000954735
0.0009196265
-0.0004382083
-0.0009144922
0.0008192953
-0.0006885939
-0.0008326176
0.000623571
-0.0007287095
-0.000717534
0.0003592368
-0.0005285396
-0.0005818116
5.505555e-05
-8.415491e-05
-0.0004361648
-0.0002571062
0.0005912962
-0.0002924898
-0.0005556396
0.001480007
-0.000161631
-0.000830359
0.002570911
-4.692164e-05
-0.001086309
0.003868833
4.899675e-05
-0.001338156
0.005401903
0.000126836
-0.00160964
0.007234139
0.0001889196
-0.001937558
0.009484719
0.0002388011
-0.002378722
0.01237945
0.0002803115
-0.003041634
0.000313331
-0.003875051
-0.01096985
0.0005082591
-0.003704473
-0.008226261
0.0004673692
-0.002912248
-0.006099155
0.0004173259
-0.002283858
-0.004373058
0.0003567464
-0.001868539
-0.00293154
0.0002796571
-0.001565214
-0.001711495
0.0001806094
-0.001318913
-0.0006831932
5.616856e-05
-0.001095132
0.0001591453
-9.393031e-05
-0.000870188
0.0008048187
-0.0002692073
-0.0006280472
0.001239635
-0.0004613167
-0.0003669488
0.001454344
-0.0006598984
-9.523408e-05
0.001448298
-0.0008516954
0.000176918
0.001246437
-0.001016111
0.0004147278
0.000894238
-0.001140453
0.0005971595
0.0004576788
-0.001210866
0.0006995276
1.514704e-05
-0.001219585
0.0007073849
-0.0003512376
-0.001165152
0.0006170481
-0.0005702389
-0.001054323
0.00044071
-0.0005913868
-0.000899445
0.0002030615
-0.0003840848
-0.0007130571
-7.605391e-05
5.417083e-05
-0.0005168426
-0.0003575757
0.0007152278
-0.0003225679
-0.0006309768
0.001583931
-0.0001450369
-0.0008852948
0.002652814
9.973083e-06
-0.001125776
0.003929508
0.0001390292
-0.001366725
0.00544363
0.0002432808
-0.001630565
0.007260636
0.0003255975
-0.001953682
0.009500743
0.0003910395
-0.002392344
0.01239028
0.0004452947
-0.003054521
0.0004891149
-0.00388892
-0.01097723
0.0007042636
-0.003725482
-0.008239208
0.0006590949
-0.002929746
-0.006125639
0.0006054056
-0.002301648
-0.004420032
0.0005403373
-0.001889196
-0.003004438
0.0004558729
-0.001591808
-0.001813838
0.0003451234
-0.001355112
-0.0008162003
0.0002039565
-0.001145424
-2.458557e-06
3.208837e-05
-0.0009397583
0.0006248327
-0.00017223
-0.0007242662
0.001050976
-0.000392388
-0.0004950693
0.001270773
-0.0006217018
-0.000257991
0.001290443
-0.0008416793
-2.968352e-05
0.001128094
-0.001033737
0.0001799785
0.0008304126
-0.001177325
0.0003345558
0.0004562609
-0.001257377
0.000420666
7.709596e-05
-0.001266972
0.0004265551
-0.000232727
-0.001204778
0.0003494515
-0.0004097591
-0.001076298
0.0001990097
-0.0004024341
-0.0008949375
-1.182989e-05
-0.000187608
-0.0006810936
-0.0002467874
0.0002424152
-0.000453525
-0.0004933386
0.0008833302
-0.0002302392
-0.0007332417
0.001724446
-2.545153e-05
-0.0009606989
0.002763278
0.0001520821
-0.00118094
0.00400984
0.000299369
-0.0014069
0.005497026
0.0004164156
-0.00166032
0.007292259
0.0005071638
-0.001976797
0.009517289
0.0005778682
-0.002411857
0.01239926
0.000636323
-0.003072998
0.0006845547
-0.003908867
-0.0109755
0.0009226899
-0.003752391
-0.008244052
0.0008808835
-0.002953237
-0.006147178
0.0008340424
-0.002325509
-0.004467043
0.0007766246
-0.001916421
-0.003083518
0.0006983468
-0.001625997
-0.001928844
0.0005909326
-0.001400482
-0.0009673415
0.0004495393
-0.001207083
-0.0001846409
0.0002732651
-0.001023875
0.0004154852
6.499369e-05
-0.0008373477
0.0008307517
-0.0001640245
-0.0006436277
0.001058017
-0.0004019405
-0.0004470239
0.001104098
-0.0006304413
-0.000257316
0.000990727
-0.0008288296
-9.153341e-05
0.0007569152
-0.0009780468
3.453672e-05
0.0004548075
-0.001062325
0.0001070584
0.0001489075
-0.0010719
0.0001108312
-9.4951e-05
-0.001005691
4.47741e-05
-0.0002196
-0.0008710104
-8.063621e-05
-0.0001828541
-0.0006832934
-0.0002483876
4.154222e-05
-0.000461328
-0.0004441597
0.0004623255
-0.000224601
-0.0006497051
0.001078243
6.951049e-06
-0.0008531062
0.001886971
0.0002169303
-0.001051107
0.002888629
0.0003985806
-0.001248155
0.004098164
0.0005462581
-0.001456422
0.005552043
0.0006602066
-0.00169767
0.007320046
0.0007448557
-0.002005694
0.009526403
0.00080812
-0.002436608
0.01239921
0.0008602214
-0.003096699
0.0009065242
-0.00393448
-0.01095537
0.001168809
-0.003786736
-0.008230767
0.001139961
-0.002983674
-0.00615309
0.001112616
-0.00235625
-0.00450257
0.001076881
-0.001950775
-0.003156143
0.001019732
-0.001667811
-0.002042621
0.0009314969
-0.001454085
-0.001122496
0.0008069094
-0.001277494
-0.0003774249
0.0006452813
-0.001117085
0.0001964451
0.0004511077
-0.0009599823
0.0006007381
0.0002330726
-0.000801388
0.0008344408
8.09201e-06
-0.0006437328
0.0009094725
-0.0002108123
-0.0004946582
0.0008459246
-0.0004003526
-0.0003649264
0.0006785334
-0.0005427947
-0.0002678581
0.0004539526
-0.0006225615
-0.0002151797
0.0002265586
-0.0006311054
-0.000213398
5.1902e-05
-0.0005674712
-0.0002635603
-2.008843e-05
-0.0004382927
-0.0003607249
4.831299e-05
-0.0002578453
-0.0004938472
0.000281147
-4.478738e-05
-0.0006493724
0.000691965
0.0001798778
-0.0008152949
0.001282675
0.0003992643
-0.0009830219
0.002054039
0.0005969995
-0.001151431
0.003013675
0.0007637373
-0.001324791
0.004180846
0.0008943873
-0.001515299
0.005596127
0.000988919
-0.001743992
0.007332742
0.001052113
-0.002043872
0.009518098
0.001093421
-0.002470656
0.01238235
0.001125982
-0.003130014
0.001159698
-0.003971377
-0.01090544
0.001448477
-0.003830703
-0.008187379
0.001444774
-0.00302287
-0.006131144
0.00145205
-0.002395668
-0.004514054
0.001453746
-0.001993953
-0.003209116
0.001433389
-0.001718594
-0.002140959
0.001379891
-0.00151655
-0.00126575
0.001287856
-0.001356153
-0.0005605317
0.001157126
-0.001217061
-1.520412e-05
0.0009926625
-0.001086881
0.0003756291
0.000802609
-0.0009603678
0.0006174963
0.0006044884
-0.0008382615
0.0007211063
0.0004108824
-0.0007253024
0.0007067583
0.0002424448
-0.0006284469
0.0006044395
0.000116403
-0.0005568765
0.0004539116
4.653869e-05
-0.00051857
0.0003012741
3.99628e-05
-0.0005184284
0.0001937433
9.719626e-05
-0.0005571343
0.0001734691
0.0002129108
-0.0006309271
0.0002736144
0.0003743021
-0.0007322907
0.0005163188
0.0005644361
-0.0008519259
0.0009147872
0.0007634577
-0.0009820464
0.001477083
0.0009546603
-0.00111769
0.002209306
0.001123375
-0.001258597
0.003123573
0.001259446
-0.001409974
0.004244182
0.001357394
-0.001583615
0.005616373
0.00141679
-0.00180006
0.007317777
0.001442589
-0.002091878
0.009480024
0.001445739
-0.002514563
0.0123365
0.00144295
-0.003173445
0.001450896
-0.004019772
-0.01081101
0.001769638
-0.003887184
-0.008099443
0.001806982
-0.003073778
-0.006067627
0.001867244
-0.002447009
-0.00448845
0.00192394
-0.00204937
-0.003229665
0.001956307
-0.001781701
-0.002210826
0.001951931
-0.001590878
-0.001383226
0.001905658
-0.001445401
-0.0007189254
0.001818094
-0.001325268
-0.0002025174
0.001694758
-0.001218502
0.000173969
0.001545297
-0.001119172
0.0004207208
0.001384111
-0.001026372
0.0005492474
0.001225282
-0.0009429239
0.0005787821
0.001086182
-0.0008732696
0.0005360812
0.000982042
-0.000822936
0.0004547822
0.0009246458
-0.0007968062
0.0003722717
0.0009204903
-0.0007980149
0.0003263508
0.0009701351
-0.0008270158
0.0003524228
0.00106822
-0.0008813789
0.0004795116
0.001203747
-0.0009565312
0.0007291305
0.001361724
-0.001046905
0.001115189
0.00152507
-0.001147669
0.001648309
0.001677808
-0.001256266
0.002339399
0.001806047
-0.001373761
0.003205289
0.001899356
-0.001505799
0.004275228
0.001951574
-0.001664118
0.005599514
0.001961491
-0.001868986
0.007261112
0.001933824
-0.002152832
0.00939724
0.001880829
-0.002571218
0.01224604
0.001823571
-0.003229423
0.001789122
-0.004081822
-0.01065299
0.002144441
-0.003960533
-0.007949526
0.002244722
-0.0031412
-0.005947453
0.002381003
-0.002515831
-0.004412852
0.002512483
-0.002123143
-0.003206465
0.002613445
-0.001863524
-0.002241837
0.002670755
-0.00168345
-0.001465158
0.002680359
-0.001551378
-0.000843978
0.002644397
-0.001447482
-0.0003589058
0.002569616
-0.001359929
2.043248e-06
0.002466434
-0.001282085
0.0002518623
0.002346849
-0.001212556
0.000401828
0.002227212
-0.001151894
0.0004698835
0.002120633
-0.001102505
0.0004790956
0.002040564
-0.001067732
0.000457092
0.001997148
-0.001050497
0.0004343546
0.001995956
-0.001052726
0.0004418064
0.002037397
-0.001074712
0.0005083843
0.002116664
-0.00111502
0.0006587757
0.002224278
-0.001170921
0.0009124536
0.002347235
-0.001239188
0.001284154
0.002470635
-0.001317264
0.001786671
0.00257971
-0.001404418
0.00243445
0.002661058
-0.001502788
0.003248474
0.002703811
-0.001618477
0.00426264
0.002700643
-0.001763234
0.005532519
0.002648817
-0.001957203
0.007147344
0.002551893
-0.002232894
0.009251746
0.002422765
-0.002646337
0.0120913
0.002287415
-0.003303394
0.002187402
-0.004162237
-0.01040602
0.002593095
-0.004057562
-0.007716512
0.002788354
-0.003233138
-0.005754409
0.003030575
-0.002611674
-0.004275282
0.003259241
-0.002225883
-0.00313059
0.003444049
-0.001975295
-0.002226993
0.003572934
-0.001805775
-0.001505634
0.003644673
-0.001685671
-0.000930098
0.003664193
-0.00159533
-0.0004776343
0.003640202
-0.001523049
-0.000132998
0.003584001
-0.001462201
0.0001154935
0.003508274
-0.001409914
0.0002817863
0.003426848
-0.001365927
0.0003814737
0.003352427
-0.001331479
0.0004338191
0.003296289
-0.001308069
0.0004612946
0.003266993
-0.001297319
0.0004884165
0.003269211
-0.001300375
0.0005400683
0.003303196
-0.001317449
0.0006397336
0.003364752
-0.001347751
0.0008080933
0.003445731
-0.001389811
0.001062482
0.00353484
-0.001441993
0.00141756
0.003618847
-0.001503288
0.001887455
0.003684016
-0.001574199
0.002489035
0.003717092
-0.001657613
0.003246499
0.003706257
-0.001759909
0.004197747
0.003642185
-0.001892789
0.005403522
0.003519293
-0.00207625
0.006960189
0.003338171
-0.002342944
0.009022082
0.00311042
-0.002749547
0.01184595
0.002866391
-0.003402846
0.002667497
-0.004267382
-0.01003459
0.003151318
-0.004188916
-0.007374212
0.00349109
-0.003363116
-0.005471483
0.003878805
-0.002750958
-0.0040658
0.004229319
-0.00237576
-0.002996761
0.004511093
-0.002136083
-0.00216375
0.004717231
-0.001977307
-0.001503586
0.004852405
-0.001867895
-0.0009770596
0.00492625
-0.001788582
-0.0005594878
0.004950586
-0.001727954
-0.0002343516
0.004938327
-0.001679461
1.079882e-05
0.00490263