/*--------------------------------*- C++ -*----------------------------------*\
| =========                 |                                                 |
| \\      /  F ield         | OpenFOAM: The Open Source CFD Toolbox           |
|  \\    /   O peration     | Version:  2506                                  |
|   \\  /    A nd           | Website:  www.openfoam.com                      |
|    \\/     M anipulation  |                                                 |
\*---------------------------------------------------------------------------*/
FoamFile
{
    version     2.0;
    format      ascii;
    arch        "LSB;label=32;scalar=64";
    class       volScalarField;
    location    "2500/air";
    object      qr;
}
// * * * * * * * * * * * * * * * * * * * * * * * * * * * * * * * * * * * * * //

dimensions      [1 0 -3 0 0 0 0];

internalField   uniform 0;

boundaryField
{
    maxY
    {
        type            calculated;
        value           uniform 0;
    }
    minX
    {
        type            calculated;
        value           uniform 0;
    }
    maxX
    {
        type            calculated;
        value           uniform 0;
    }
    minY
    {
        type            calculated;
        value           uniform 0;
    }
    maxZ
    {
        type            calculated;
        value           uniform 0;
    }
    air_to_solid
    {
        type            greyDiffusiveRadiationViewFactor;
        value           nonuniform List<scalar> 
1536
(
5.165345
5.002378
4.942818
4.914001
4.898694
4.923475
5.072185
4.886212
4.82461
4.794419
4.777311
4.80154
5.037188
4.84963
4.787386
4.75668
4.739122
4.762869
5.032653
4.844821
4.782376
4.751502
4.733812
4.757364
5.042136
4.854422
4.792202
4.761525
4.743992
4.767833
5.09329
4.90805
4.846458
4.816254
4.799291
4.823563
3.057622
5.868087
-98.9657
1.630011
-99.68431
1.596311
-99.74238
1.587833
-99.75322
1.588086
-99.73329
1.62438
-99.6553
0.9076942
5.166353
-98.81831
-99.77064
-99.83002
-99.84092
-99.82101
-99.74089
-0.3546827
5.146934
-98.87621
-99.82981
-99.89003
-99.90113
-99.88109
-99.80018
-0.3990218
5.148023
-98.88717
-99.84076
-99.90113
-99.91228
-99.89221
-99.81122
-0.4064443
5.153041
-98.86757
-99.82103
-99.88112
-99.89217
-99.87216
-99.79132
-0.3931157
5.189597
-98.78982
-99.74084
-99.79986
-99.81071
-99.79082
-99.71112
-0.3318746
2.975758
1.548736
1.515031
1.506568
1.506851
1.543198
4.161375
3.108776
3.088173
3.053559
3.047776
3.038543
3.036982
3.036676
3.039185
3.063993
3.081699
2.982448
6.498902
6.613711
5.028131
5.091965
4.934262
4.953237
4.907291
4.856605
4.919992
4.845884
4.822151
4.900576
4.815815
4.80125
4.910254
4.798947
4.809739
4.957476
4.823265
4.836084
2.421599
2.141441
6.596368
6.571271
4.913317
5.041477
4.88134
4.835336
4.854061
4.802797
4.800789
4.79194
4.767814
4.77968
4.761336
4.746318
4.787989
4.743855
4.754276
4.814672
4.767721
4.780264
2.118231
2.079485
6.568305
6.566127
4.876902
5.032581
4.872062
4.798265
4.844782
4.793288
4.763171
4.782347
4.758018
4.741594
4.751483
4.736306
4.749478
4.733797
4.744054
4.775136
4.757353
4.769173
2.073335
2.065842
6.566456
6.570602
4.872096
5.037697
4.877206
4.793307
4.849904
4.798489
4.758031
4.787584
4.763332
4.736314
4.75682
4.741709
4.744059
4.739221
4.749567
4.769177
4.762952
4.775175
2.065825
2.073223
6.57422
6.60126
4.881725
5.073328
4.914017
4.803069
4.886856
4.83586
4.768008
4.82509
4.801184
4.746458
4.79478
4.779981
4.754385
4.777587
4.788237
4.78032
4.801779
4.814817
2.079348
2.118063
6.619257
6.484471
4.935077
5.167444
5.029758
4.089076
3.023347
4.857212
5.003896
4.95449
3.002733
2.968111
4.822613
4.943997
4.920975
2.96233
2.953108
4.801609
4.914927
4.901352
2.951553
2.951268
4.810041
4.899427
4.910883
2.953785
2.978631
4.836275
4.924079
4.957916
2.141287
2.996354
2.420828
2.980886
1.648343
-99.65634
5.180758
-98.7901
-99.7121
1.600867
-99.73376
-99.74111
-99.7914
1.589216
-99.75331
-99.80012
-99.81105
1.586445
-99.74194
-99.81098
-99.79982
1.608537
-99.68371
-99.7911
-99.74085
1.769704
-100.0924
-99.71145
-0.3316203
-100.5478
-99.74137
5.148305
-98.86765
-99.79152
-99.82124
-99.82111
-99.87232
-99.84099
-99.8812
-99.89231
-99.82976
-99.89225
-99.88106
-99.77051
-99.87225
-99.82131
-100.5762
-99.79144
-0.3929227
-100.6261
-99.80017
5.147493
-98.88718
-99.8111
-99.88112
-99.84077
-99.8922
-99.90118
-99.90114
-99.91234
-99.88992
-99.91229
-99.90106
-99.83009
-99.89221
-99.84115
-100.6348
-99.81123
-0.406421
-100.6459
-99.8111
5.150627
-98.87615
-99.80012
-99.89219
-99.82975
-99.88107
-99.91233
-99.88997
-99.90112
-99.90105
-99.90107
-99.88986
-99.84114
-99.88103
-99.83001
-100.6459
-99.8001
-0.3991781
-100.6347
-99.79144
5.174173
-98.81811
-99.74116
-99.87224
-99.77044
-99.82105
-99.89223
-99.82982
-99.84079
-99.88097
-99.84072
-99.82955
-99.8212
-99.8208
-99.77027
-100.6259
-99.74063
-0.3549409
-100.5759
-99.71182
5.866153
-98.98023
1.567077
-99.67933
-99.79113
-99.70731
1.519584
-99.75677
-99.81079
-99.76539
1.507947
-99.77631
-99.79954
-99.77622
1.505201
-99.76493
-99.74054
-99.75628
1.527339
-99.70667
-100.5474
-99.67825
0.9068303
1.768376
-100.1069
5.080837
5.103797
5.148218
4.116377
6.696634
4.192637
6.657811
4.952141
4.982098
4.972851
4.135104
4.117906
4.903119
4.934131
4.912036
4.087594
4.081829
4.876769
4.90864
4.882344
4.070316
4.067798
4.866374
4.899057
4.86619
4.066405
4.069647
4.910238
4.942569
4.890676
4.102957
4.121695
3.445617
3.675794
4.984784
4.999329
5.058016
6.57431
6.561343
4.850134
4.86512
4.871301
4.800471
4.815609
4.809517
4.773366
4.788653
4.779178
4.761809
4.777252
4.761911
4.806171
4.821707
4.786014
3.633121
3.616658
4.960691
4.963387
5.034597
6.543225
6.541238
4.825661
4.828384
4.846933
4.775431
4.778248
4.784601
4.747908
4.750797
4.753817
4.736026
4.73897
4.7362
4.779779
4.782851
4.759852
3.590808
3.587181
4.959352
4.958612
5.033386
6.540155
6.540855
4.824256
4.823536
4.845548
4.773928
4.77319
4.78312
4.746335
4.745585
4.75226
4.734395
4.733632
4.734583
4.778053
4.777242
4.758162
3.584031
3.584998
4.975239
4.968292
5.048929
6.548558
6.554685
4.840193
4.833171
4.861427
4.790238
4.783074
4.799345
4.762915
4.75565
4.768777
4.751192
4.743849
4.751329
4.795385
4.787879
4.775279
3.596367
3.604665
5.048369
5.020698
5.119726
6.596185
6.622063
4.916213
4.886997
4.937159
4.866766
4.837441
4.875768
4.839994
4.810511
4.845687
4.829043
4.799275
4.828993
4.873186
4.843656
4.853313
3.655456
3.681449
4.043622
4.197327
4.138421
4.121017
4.090159
4.084231
4.072275
4.069625
4.067872
4.071006
4.104035
4.122646
-99.39296
-99.45991
1.93497
-98.74228
5.32585
-99.67901
-99.70563
1.616805
-99.65756
-99.72166
-99.74814
1.593195
-99.71591
-99.72497
-99.75144
1.586764
-99.72673
-99.69493
-99.72141
1.591642
-99.70682
-99.60696
-99.63036
1.640627
-99.62825
-99.50324
-99.48177
-98.83967
5.157039
-99.81464
-99.79257
-99.79259
-99.85808
-99.8358
-99.85227
-99.8615
-99.83919
-99.86323
-99.83127
-99.80903
-99.84329
-99.7428
-99.72098
-99.76285
-99.54565
-99.53992
-98.88195
5.146692
-99.8578
-99.85204
-99.83555
-99.90174
-99.8959
-99.89585
-99.90525
-99.8994
-99.90698
-99.87482
-99.869
-99.88692
-99.7858
-99.78001
-99.80597
-99.54918
-99.55086
-98.88549
5.148571
-99.86135
-99.86303
-99.83909
-99.90533
-99.90703
-99.89944
-99.90885
-99.91055
-99.91058
-99.87839
-99.88009
-99.89051
-99.78935
-99.79106
-99.80952
-99.51938
-99.53124
-98.85573
5.157105
-99.83117
-99.84322
-99.80903
-99.87478
-99.88697
-99.86895
-99.87823
-99.89044
-99.87996
-99.84792
-99.86008
-99.85998
-99.75914
-99.77116
-99.77927
-99.4186
-99.45288
-98.75654
5.217908
-99.72516
-99.76262
-99.70355
-99.76797
-99.80562
-99.76222
-99.77129
-99.80897
-99.77304
-99.74123
-99.77887
-99.75314
-99.65427
-99.69146
-99.67396
4.157751
4.184834
4.217281
3.337354
3.50589
3.399666
3.150895
3.423806
4.095065
4.104869
3.378547
3.072856
3.362774
3.3427
3.061615
3.351126
4.073452
4.077226
3.336594
3.043676
3.332195
3.326549
3.040709
3.328957
4.065422
4.066064
3.324778
3.036009
3.323627
3.32402
3.035802
3.323269
4.086713
4.076081
3.326421
3.043927
3.331098
3.351111
3.051866
3.338997
3.85435
4.104225
3.368818
3.087238
3.388016
3.105186
2.944722
3.365008
6.592774
6.618541
6.538171
6.646525
6.761353
6.737337
6.63554
6.759045
5.033391
5.060858
4.999233
5.047197
5.118195
5.019694
4.998023
4.963015
4.969727
4.935764
4.966035
4.922689
4.915381
4.93627
4.886288
4.89892
4.885787
4.869775
4.895408
4.926636
4.888549
4.866123
4.875088
4.836899
4.858362
4.85144
4.829115
4.871977
4.904063
4.868283
4.839488
4.845155
4.810092
4.834595
4.830787
4.805137
4.869732
4.902571
4.877352
4.828634
4.828567
4.798942
4.831897
4.839493
4.802154
4.928857
4.961479
4.901746
4.872816
4.852942
4.843357
4.890857
4.864585
4.86174
3.655533
3.681503
2.578481
2.223719
2.742965
2.726941
2.171892
2.752472
6.546763
6.55249
6.719543
6.584342
6.70712
6.693413
6.576298
6.698734
4.934299
4.949011
4.898492
4.974636
5.048115
4.967806
4.924083
4.888229
4.917218
4.833518
4.848544
4.820272
4.839777
4.86098
4.832831
4.823115
4.809831
4.816136
4.792614
4.807792
4.785578
4.789935
4.799017
4.782826
4.782045
4.774983
4.774916
4.768304
4.783634
4.764313
4.762694
4.768537
4.755469
4.757606
4.75359
4.750366
4.764928
4.780418
4.772471
4.751028
4.75115
4.743714
4.754129
4.761635
4.746806
4.824641
4.840207
4.799072
4.795237
4.775131
4.787764
4.813618
4.78794
4.80605
3.596457
3.604764
2.703981
2.100985
2.686969
2.665861
2.088387
2.674582
6.539955
6.540256
6.690214
6.566793
6.688508
6.687593
6.566176
6.687743
4.91008
4.912786
4.874199
4.959194
5.03317
4.95856
4.908581
4.872706
4.907943
4.808896
4.811642
4.795497
4.824147
4.845433
4.823493
4.807368
4.793964
4.806714
4.767462
4.7703
4.760318
4.773852
4.783037
4.773158
4.765872
4.758725
4.76518
4.742757
4.745662
4.738678
4.74628
4.752199
4.745561
4.741121
4.73704
4.740403
4.739073
4.742035
4.746499
4.734357
4.734538
4.733612
4.737399
4.744813
4.736656
4.797891
4.801038
4.7719
4.77802
4.758127
4.777228
4.796079
4.770021
4.795265
3.584043
3.585033
2.659872
2.069343
2.655994
2.652606
2.066953
2.65368
6.544622
6.542236
6.687872
6.567163
6.68858
6.692162
6.568436
6.689901
4.908715
4.907985
4.872823
4.960955
5.034959
4.96376
4.910313
4.874417
4.913114
4.807464
4.80674
4.79404
4.825839
4.847127
4.828631
4.809064
4.795662
4.811881
4.765938
4.765198
4.758778
4.775559
4.784741
4.778424
4.767582
4.760438
4.770471
4.741166
4.740414
4.737074
4.747998
4.753915
4.75092
4.742843
4.738765
4.745785
4.737429
4.736662
4.744838
4.736091
4.736267
4.739058
4.739139
4.746566
4.742127
4.79611
4.795275
4.770035
4.779837
4.759908
4.782932
4.797945
4.771925
4.801117
3.590733
3.587125
2.652591
2.066902
2.653634
2.659772
2.06926
2.65592
6.577309
6.563938
6.695914
6.579896
6.701787
6.7237
6.588586
6.710723
4.924608
4.91764
4.888707
4.98551
5.05899
5.000188
4.934938
4.899081
4.949767
4.823499
4.816436
4.810172
4.850633
4.871841
4.865715
4.833988
4.820715
4.849104
4.782324
4.77513
4.775231
4.800841
4.809914
4.816054
4.792964
4.785909
4.808213
4.757808
4.750519
4.75377
4.77364
4.779472
4.788987
4.768565
4.76456
4.783954
4.754283
4.74692
4.761777
4.762018
4.762131
4.777512
4.765133
4.77267
4.780673
4.813757
4.806156
4.788018
4.80636
4.786203
4.821944
4.824821
4.799179
4.840434
3.633027
3.616557
2.665739
2.088231
2.674445
2.703838
2.100819
2.686824
6.686696
6.659005
6.742052
6.641379
6.763943
6.52312
6.649422
6.763149
4.999058
4.970611
4.963968
5.08225
5.150005
5.105722
5.034655
5.000399
5.062614
4.161291
4.188683
4.145346
3.252068
3.42279
3.39901
3.065485
3.42335
4.899696
4.870429
4.886507
4.953159
4.973937
4.98352
4.936718
4.923583
4.967369
4.097801
4.107787
3.377853
2.98741
3.362049
3.341927
2.976167
3.350375
4.858963
4.829613
4.851999
4.903914
4.912877
4.93524
4.896158
4.889254
4.92768
4.075552
4.079473
3.335801
2.958233
3.331384
3.325708
2.95527
3.32813
4.83507
4.805522
4.831231
4.877402
4.883011
4.909512
4.872577
4.86885
4.904885
4.067002
4.067764
3.323923
2.950586
3.32276
3.323133
2.950386
3.322392
4.832289
4.802468
4.839868
4.86689
4.866729
4.899752
4.870228
4.877831
4.903231
4.087877
4.077339
3.325527
2.958538
3.330198
3.350208
2.96649
3.338094
4.891211
4.862025
4.864835
4.910699
4.891143
4.943153
4.929297
4.902069
4.962029
3.445248
3.85299
3.675712
4.104648
2.726811
2.171754
2.752357
3.367918
3.001906
3.387013
2.577718
3.103596
2.223494
2.943556
2.742772
3.3638
-99.57843
-99.60943
1.692983
-99.62921
-99.41858
-98.75662
5.208254
-99.45316
-99.62129
-99.67472
-99.65781
-99.69533
-99.72187
1.607374
-99.70724
-99.72505
-99.70344
-99.76289
-99.74147
-99.75341
-99.77941
-99.7252
-99.75169
1.590936
-99.72682
-99.76786
-99.7621
-99.80589
-99.7714
-99.77301
-99.80944
-99.72132
-99.74777
1.586201
-99.7155
-99.77118
-99.77293
-99.80924
-99.76754
-99.76174
-99.80561
-99.67861
-99.70517
1.59814
-99.65705
-99.74114
-99.75304
-99.77917
-99.72475
-99.70305
-99.7627
-99.70768
-99.68508
1.645549
-100.4235
-0.09981747
-99.65425
-99.67391
-99.69181
-99.77201
-100.5085
-0.2895144
-99.81046
-99.70842
-99.68679
-99.76317
-99.51949
-98.85584
5.151334
-99.53132
-99.72476
-99.77961
-99.73662
-99.83135
-99.80919
-99.84346
-99.83128
-99.80914
-99.8433
-99.84805
-99.86021
-99.86012
-99.86166
-99.83936
-99.8633
-99.87489
-99.86906
-99.88705
-99.87848
-99.88013
-99.89066
-99.85787
-99.83556
-99.85206
-99.87834
-99.88007
-99.89053
-99.87471
-99.86889
-99.88689
-99.81466
-99.79248
-99.79259
-99.84805
-99.8601
-99.86017
-99.83138
-99.80926
-99.84348
-99.86098
-99.8393
-100.5978
-0.3717066
-99.75931
-99.77943
-99.77129
-99.87741
-100.6142
-0.3841515
-99.88937
-99.75096
-99.74525
-99.8059
-99.5492
-98.88551
5.146983
-99.55086
-99.75451
-99.80945
-99.75617
-99.87468
-99.86889
-99.88693
-99.86137
-99.83911
-99.86303
-99.87826
-99.89052
-99.87993
-99.90536
-99.89952
-99.90703
-99.90535
-99.89946
-99.90704
-99.90898
-99.91065
-99.91067
-99.9016
-99.89576
-99.89576
-99.90887
-99.9106
-99.91056
-99.90522
-99.89937
-99.90691
-99.85809
-99.85228
-99.83588
-99.87842
-99.89053
-99.8801
-99.86168
-99.83947
-99.86336
-99.90388
-99.89808
-100.6406
-0.4029606
-99.78939
-99.80956
-99.79107
-99.90748
-100.6442
-0.4053245
-99.90916
-99.75449
-99.75616
-99.80943
-99.54561
-98.88191
5.149335
-99.53987
-99.75092
-99.80586
-99.74519
-99.87824
-99.87992
-99.8905
-99.85777
-99.83551
-99.85198
-99.87464
-99.88689
-99.86884
-99.90896
-99.91066
-99.91063
-99.9017
-99.89581
-99.89585
-99.90533
-99.90699
-99.89946
-99.9052
-99.9069
-99.89935
-99.90521
-99.90694
-99.89934
-99.90156
-99.89572
-99.8957
-99.86166
-99.86335
-99.83944
-99.87477
-99.88688
-99.86893
-99.85804
-99.83583
-99.85221
-99.90744
-99.90915
-100.6441
-0.4053945
-99.78573
-99.80591
-99.77992
-99.90381
-100.6405
-0.403075
-99.89797
-99.72465
-99.73654
-99.7795
-99.50309
-98.83952
5.163838
-99.48156
-99.70826
-99.76302
-99.68658
-99.84794
-99.86004
-99.8601
-99.8145
-99.79245
-99.79237
-99.8312
-99.84331
-99.80899
-99.87837
-99.89058
-99.88002
-99.85794
-99.85213
-99.83561
-99.86151
-99.86315
-99.83917
-99.87459
-99.8868
-99.86877
-99.86135
-99.86308
-99.83899
-99.85772
-99.85191
-99.83535
-99.83125
-99.84338
-99.80911
-99.83111
-99.84313
-99.80881
-99.81449
-99.79241
-99.79226
-99.87722
-99.88922
-100.6139
-0.3843755
-99.74258
-99.76265
-99.72071
-99.86074
-100.5975
-0.3719529
-99.839
-99.62137
-99.65753
-99.67482
-99.3967
-98.74483
5.334484
-99.48185
1.85343
-99.58269
-99.63353
-99.63234
1.611706
-99.74158
-99.77914
-99.75352
-99.68335
-99.6619
-99.72864
1.535525
-99.69968
-99.71159
-99.74488
1.526092
-99.77151
-99.80917
-99.77312
-99.72601
-99.72025
-99.77115
1.511917
-99.72955
-99.73116
-99.7747
1.509662
-99.76764
-99.80533
-99.76184
-99.72931
-99.73107
-99.77444
1.505506
-99.72565
-99.71983
-99.77077
1.50495
-99.72482
-99.76239
-99.70311
-99.69924
-99.71114
-99.74439
1.510418
-99.68292
-99.66134
-99.72814
1.516928
-99.77194
-99.81008
-100.5083
-0.289766
-99.61117
-99.63253
-99.65321
1.559437
-99.71135
-100.426
-0.1001989
-99.70699
1.564112
)
;
        qro             uniform 0;
    }
    air_to_floor
    {
        type            greyDiffusiveRadiationViewFactor;
        value           nonuniform List<scalar> 
900
(
30.90679
34.26241
37.2991
40.02787
42.4586
44.60219
46.47147
48.08024
49.46858
50.63022
51.55604
52.26947
52.81046
53.17704
53.35594
53.33419
53.1197
52.71816
52.1217
51.32719
50.31153
49.05857
47.5671
45.83705
43.8471
41.58529
39.04041
36.20254
33.06263
29.61026
34.37275
37.66858
40.64095
43.30269
45.66549
47.7421
49.54677
51.09443
52.42572
53.53612
54.41935
55.09935
55.61347
55.96082
56.12858
56.10654
55.90239
55.51895
54.94737
54.1835
53.20691
52.00158
50.56303
48.88893
46.95872
44.75932
42.27807
39.50331
36.42415
33.02841
37.52499
40.75694
43.66139
46.2529
48.54498
50.55213
52.29003
53.7747
55.04741
56.10505
56.94444
57.58987
58.07613
58.40383
58.56072
58.53872
58.34433
57.97938
57.43353
56.70141
55.76506
54.60868
53.22451
51.60811
49.73973
47.60522
45.19045
42.48205
39.46738
36.13252
40.37393
43.53971
46.37438
48.89419
51.11438
53.05113
54.72156
56.1431
57.35642
58.36101
59.15619
59.76652
60.22471
60.53274
60.67888
60.65701
60.47216
60.12571
59.60575
58.90582
58.00996
56.9027
55.57344
54.01494
52.20907
50.14038
47.79331
45.15285
42.20467
38.93316
42.92859
46.02773
48.79255
51.24092
53.38971
55.25671
56.8604
58.21984
59.37438
60.32672
61.07824
61.65376
62.08426
62.37304
62.50911
62.48704
62.31146
61.98301
61.4885
60.8204
59.9644
58.90534
57.63016
56.1286
54.38449
52.38101
50.10124
47.52861
44.64716
41.43964
45.19885
48.23265
50.92928
53.30813
55.38761
57.18703
58.72623
60.0256
61.12329
62.02523
62.73454
63.27628
63.68002
63.95034
64.07703
64.05444
63.88786
63.57653
63.10651
62.46915
61.65149
60.63873
59.41553
57.96886
56.28435
54.34401
52.12958
49.62302
46.80682
43.6622
47.19586
50.16711
52.7987
55.11141
57.12509
58.86046
60.33865
61.58111
62.62534
63.47944
64.14903
64.65848
65.03696
65.28981
65.40781
65.38454
65.22646
64.93124
64.48422
63.87581
63.09425
62.12504
60.95057
59.55564
57.92736
56.04675
53.89437
51.45073
48.69689
45.61264
48.93144
51.8441
54.41493
56.66626
58.61905
60.29516
61.71688
62.90666
63.90168
64.71141
65.34423
65.82378
66.17897
66.41591
66.52557
66.50163
66.35142
66.07102
65.64511
65.06329
64.31491
63.38571
62.25596
60.90864
59.33225
57.50678
55.4117
53.0265
50.33108
47.30357
50.43163
53.28925
55.80317
57.99662
59.89194
61.51223
62.88101
64.02155
64.97082
65.73908
66.33761
66.78929
67.12283
67.34528
67.44697
67.42244
67.27957
67.01304
66.60684
66.04988
65.33252
64.44052
63.35243
62.04969
60.52211
58.74887
56.70817
54.37823
51.73756
48.76344
51.69325
54.50232
56.96527
59.10703
60.95113
62.52169
63.84311
64.93948
65.84777
66.57908
67.14682
67.57361
67.8878
68.09749
68.19183
68.16686
68.03042
67.77638
67.38777
66.85294
66.16328
65.30447
64.25377
62.991
61.507
59.78011
57.78778
55.5072
52.91581
49.9897
52.70284
55.48255
57.90508
60.00414
61.80562
63.33467
64.61658
65.67608
66.5499
67.25017
67.79174
68.19747
68.49544
68.69423
68.7824
68.75707
68.62582
68.3823
68.0085
67.49237
66.82595
65.99478
64.9751
63.74557
62.29775
60.60934
58.65708
56.41728
53.86645
50.97971
85.9332
56.23839
58.63847
60.70429
62.47171
63.96738
65.21728
66.24689
67.09273
67.76821
68.28807
68.67676
68.96173
69.15147
69.23472
69.20928
69.08235
68.84733
68.48549
67.98429
67.33634
66.52753
65.53323
64.33187
62.91442
61.25713
59.33708
57.12968
54.61048
51.75359
54.07696
56.81993
59.18701
61.22524
62.96544
64.43458
65.65918
66.66522
67.48899
68.14494
68.64775
69.02306
69.29818
69.48065
69.55989
69.53423
69.41061
69.1823
68.83014
68.34085
67.70757
66.91693
65.94521
64.77483
63.3917
61.7616
59.87178
26.79232
24.297
21.4589
86.88114
57.1846
59.55012
61.57102
63.29227
64.74289
65.94982
66.93946
67.74793
68.39042
68.88139
69.2472
69.51533
69.69264
69.76904
69.74327
69.62194
69.39831
69.05301
68.5722
67.94948
67.17286
66.22401
65.10397
63.80222
62.20367
60.49093
27.43355
24.95164
22.11391
87.06309
57.37401
59.73332
61.74452
63.45591
64.89699
66.09488
67.07595
67.87624
68.51161
68.99651
69.35726
69.62176
69.79646
69.87143
69.8456
69.72546
69.50425
69.16249
68.68604
68.06882
67.29938
66.36079
65.25859
63.97662
62.38976
60.69125
27.64511
25.17866
22.3692
87.06051
57.37335
59.7332
61.74451
63.45592
64.89701
66.0949
67.07596
67.87625
68.51162
68.99646
69.35728
69.62179
69.7965
69.87147
69.84564
69.7255
69.50428
69.16252
68.68608
68.06886
67.29951
66.36143
65.26081
63.98019
62.39363
60.6954
27.64967
25.18539
22.38229
86.85816
57.17972
59.5494
61.57092
63.29226
64.7429
65.94985
66.9395
67.74796
68.39023
68.88032
69.24703
69.51538
69.69273
69.76913
69.74336
69.62204
69.3984
69.0531
68.57229
67.94964
67.17361
66.22816
65.1196
63.83043
62.23479
60.52705
27.47148
24.99753
22.18517
86.4788
56.80003
59.18463
61.22494
62.96537
64.43455
65.65918
66.66522
67.48879
68.14275
68.6366
69.02092
69.29805
69.48076
69.56003
69.53437
69.41074
69.18243
68.83027
68.341
67.70795
66.91929
65.95952
64.83451
63.52778
61.91457
60.1885
27.11432
24.62181
21.79134
86.13206
56.24653
58.63867
60.70413
62.47157
63.96726
65.21719
66.24674
67.09155
67.75698
68.21323
68.66559
68.96069
69.15151
69.23485
69.20943
69.0825
68.84748
68.48564
67.98446
67.33674
66.52991
65.54755
64.39156
63.05052
61.41013
59.6538
57.4513
54.93274
52.07714
52.71356
55.48327
57.90445
60.00342
61.80491
63.33398
64.6159
65.67539
66.54901
67.24729
67.77992
68.19467
68.49468
68.69373
68.78195
68.75665
68.62541
68.3819
68.00812
67.492
66.82567
65.9951
64.97884
63.76081
62.32562
60.64011
58.69271
56.45331
53.90242
51.01598
51.69277
54.50104
56.96384
59.10558
60.94967
62.52022
63.84164
64.93801
65.84628
66.57738
67.14426
67.57196
67.88641
68.09617
68.19054
68.16561
68.0292
67.7752
67.38661
66.85183
66.16222
65.30353
64.25344
62.99249
61.51
59.78347
57.79132
55.51028
52.91744
49.99275
50.42961
53.28713
55.801
57.99442
59.8897
61.50996
62.8787
64.01922
64.96848
65.73672
66.33519
66.78696
67.12055
67.34305
67.44479
67.4203
67.27748
67.011
66.60485
66.04795
65.33065
64.43873
63.35076
62.04829
60.5209
58.74768
56.7065
54.37318
51.72118
48.75788
48.9285
51.84108
54.41184
56.6631
58.61582
60.29186
61.71352
62.90325
63.89823
64.70793
65.34074
65.8203
66.17552
66.4125
66.52221
66.49833
66.34818
66.06785
65.64203
65.0603
64.312
63.3829
62.25325
60.90604
59.32973
57.50416
55.4073
53.00888
50.25106
47.28403
47.19178
50.16291
52.79438
55.10698
57.12055
58.85581
60.33389
61.57625
62.6204
63.47445
64.144
64.65344
65.03192
65.28481
65.40287
65.37966
65.22165
64.92653
64.47962
63.87134
63.0899
62.12083
60.9465
59.55171
57.92357
56.04303
53.89023
51.44329
48.67819
45.60482
45.19364
48.22728
50.92375
53.30244
55.38176
57.18102
58.72007
60.0193
61.11688
62.01873
62.72797
63.26967
63.67341
63.94375
64.0705
64.04798
63.88149
63.57028
63.10039
62.46319
61.6457
60.63311
59.41009
57.96361
56.27929
54.33911
52.12477
49.61786
46.80035
43.65727
42.92227
46.0212
48.78581
51.23398
53.38257
55.24938
56.85287
58.21213
59.36652
60.31874
61.07017
61.64562
62.07609
62.3649
62.50103
62.47903
62.30356
61.97524
61.48089
60.81298
59.95718
58.89834
57.62337
56.12204
54.37816
52.3749
50.09534
47.52286
44.64147
41.43429
40.36652
43.53205
46.36647
48.88604
51.10599
53.0425
54.7127
56.13403
57.34717
58.35161
59.14667
59.75691
60.21506
60.5231
60.6693
60.64751
60.46278
60.11647
59.59669
58.89698
58.00136
56.89434
55.56534
54.0071
52.20151
50.13308
47.78627
45.14605
42.19811
38.92685
37.51653
40.7482
43.65236
46.24359
48.53539
50.54226
52.27991
53.76433
55.03683
56.0943
56.93354
57.57886
58.06507
58.39278
58.54971
58.5278
58.33353
57.96874
57.4231
56.69122
55.75513
54.59902
53.21514
51.59904
49.73097
47.59676
45.18229
42.47417
39.45979
36.12522
34.36329
37.65879
40.63085
43.29227
45.65477
47.73107
49.53544
51.08283
52.41388
53.52408
54.40716
55.08703
55.60109
55.94844
56.11624
56.0943
55.89027
55.507
54.93563
54.17203
53.19572
51.99069
50.55244
48.87868
46.94881
44.74975
42.26883
39.49439
36.41556
33.02014
30.89637
34.25163
37.28799
40.01641
42.4468
44.59005
46.45901
48.06748
49.45557
50.61699
51.54263
52.25593
52.79684
53.16341
53.34236
53.3207
53.10634
52.70497
52.10875
51.31451
50.29915
49.0465
47.55538
45.82569
43.8361
41.57465
39.03013
36.19263
33.05308
29.60105
)
;
        qro             uniform 0;
    }
}


// ************************************************************************* //
