/*--------------------------------*- C++ -*----------------------------------*\
| =========                 |                                                 |
| \\      /  F ield         | OpenFOAM: The Open Source CFD Toolbox           |
|  \\    /   O peration     | Version:  2506                                  |
|   \\  /    A nd           | Website:  www.openfoam.com                      |
|    \\/     M anipulation  |                                                 |
\*---------------------------------------------------------------------------*/
FoamFile
{
    version     2.0;
    format      ascii;
    arch        "LSB;label=32;scalar=64";
    class       volVectorField;
    location    "2500/air";
    object      U;
}
// * * * * * * * * * * * * * * * * * * * * * * * * * * * * * * * * * * * * * //

dimensions      [0 1 -1 0 0 0 0];

internalField   nonuniform List<vector> 
33752
(
(-0.06803876 -0.07163569 -0.04093072)
(-0.04489682 -0.08717984 -0.03686291)
(-0.03308751 -0.09796522 -0.0337112)
(-0.02566816 -0.1052112 -0.03165173)
(-0.02019817 -0.1100138 -0.03025057)
(-0.01591192 -0.1132088 -0.0292688)
(-0.01239144 -0.1153254 -0.02856807)
(-0.009402259 -0.1167004 -0.02805964)
(-0.006811306 -0.1175634 -0.02768653)
(-0.004536781 -0.1180799 -0.02741227)
(-0.002524759 -0.1183754 -0.02721293)
(-0.0007357444 -0.1185494 -0.02707154)
(0.0008803564 -0.118684 -0.02697298)
(0.0023655 -0.1188302 -0.02691786)
(0.003780005 -0.1190175 -0.0269131)
(0.005170073 -0.1192631 -0.0269594)
(0.006589922 -0.1195662 -0.02705742)
(0.00809507 -0.119907 -0.02720814)
(0.009738983 -0.1202464 -0.0274136)
(0.01157248 -0.1205267 -0.02767786)
(0.01364474 -0.1206696 -0.02800863)
(0.01600777 -0.1205744 -0.02841918)
(0.01872435 -0.120111 -0.02893129)
(0.02188247 -0.1191071 -0.02957938)
(0.02562033 -0.1173235 -0.03041845)
(0.03017741 -0.1144091 -0.03153658)
(0.03598078 -0.1098118 -0.03307406)
(0.04381593 -0.1026533 -0.03527998)
(0.0561864 -0.09175735 -0.03861897)
(0.08045491 -0.07578469 -0.04291957)
(-0.08363581 -0.04872629 -0.03686786)
(-0.05489191 -0.05865863 -0.03131302)
(-0.03935595 -0.06708154 -0.02764292)
(-0.0295406 -0.07335257 -0.02545011)
(-0.02252035 -0.0778342 -0.02404092)
(-0.01722788 -0.08096778 -0.02310022)
(-0.01304571 -0.08310628 -0.02245509)
(-0.009621963 -0.08451381 -0.02200021)
(-0.006755665 -0.08539077 -0.02167292)
(-0.004325159 -0.08589431 -0.02143474)
(-0.002250012 -0.08615096 -0.02126162)
(-0.0004669379 -0.0862639 -0.02113594)
(0.001084357 -0.08631045 -0.02104653)
(0.002457194 -0.0863523 -0.0209958)
(0.003726245 -0.08643855 -0.02098834)
(0.004960115 -0.08659196 -0.02102471)
(0.006232752 -0.08681186 -0.02110525)
(0.007617952 -0.08707505 -0.02123052)
(0.009186876 -0.0873366 -0.02140196)
(0.01100701 -0.08753067 -0.02162306)
(0.0131448 -0.08757141 -0.02190088)
(0.01567192 -0.08735191 -0.02224846)
(0.01867838 -0.08674106 -0.02268799)
(0.02229399 -0.08557563 -0.0232564)
(0.02672731 -0.08364688 -0.02401531)
(0.03233943 -0.08067877 -0.02507033)
(0.03976375 -0.07630029 -0.02659855)
(0.05009888 -0.07004176 -0.02892849)
(0.06634558 -0.06149844 -0.03279465)
(0.09641725 -0.0512813 -0.03862765)
(-0.09439555 -0.03704074 -0.03372765)
(-0.06334025 -0.04323143 -0.0276556)
(-0.04544952 -0.04927107 -0.02356995)
(-0.03371971 -0.05420149 -0.02115899)
(-0.02524955 -0.05794522 -0.01964221)
(-0.01889355 -0.06065271 -0.0186537)
(-0.01394354 -0.06251742 -0.01798972)
(-0.0099758 -0.06372041 -0.01752798)
(-0.006740967 -0.06442114 -0.01719626)
(-0.004084558 -0.0647586 -0.01695193)
(-0.001903555 -0.06485503 -0.01676891)
(-0.0001132575 -0.06481695 -0.01662809)
(0.001359706 -0.06473243 -0.01652248)
(0.002595926 -0.06467021 -0.01645848)
(0.003689502 -0.06468117 -0.01644014)
(0.004734411 -0.06479094 -0.01646815)
(0.005830394 -0.06499937 -0.01654261)
(0.007076893 -0.06528062 -0.01666312)
(0.008568709 -0.06558438 -0.01682975)
(0.01039515 -0.06583841 -0.01704438)
(0.01264253 -0.06595092 -0.01731296)
(0.0154033 -0.06581307 -0.01764831)
(0.01879205 -0.06529895 -0.01807429)
(0.02297312 -0.06426429 -0.01863229)
(0.02820562 -0.06254259 -0.01939369)
(0.03492515 -0.05994324 -0.02048197)
(0.04385983 -0.05625964 -0.02210588)
(0.05619113 -0.05132346 -0.02464746)
(0.07490276 -0.04519169 -0.02893216)
(0.1074248 -0.03881664 -0.03529311)
(-0.1015841 -0.02970905 -0.03166383)
(-0.06960693 -0.03349518 -0.02546165)
(-0.05040801 -0.03760356 -0.02116037)
(-0.03737439 -0.04120937 -0.01860801)
(-0.02776376 -0.04406884 -0.01700153)
(-0.02047643 -0.04616973 -0.01595505)
(-0.01479609 -0.04759099 -0.01525187)
(-0.01027723 -0.04844294 -0.01475919)
(-0.006649736 -0.04884405 -0.01439881)
(-0.003743376 -0.04891335 -0.01412468)
(-0.001441149 -0.04876632 -0.0139096)
(0.0003575775 -0.0485105 -0.01373387)
(0.001738537 -0.04824171 -0.01359756)
(0.002812699 -0.04803706 -0.01351183)
(0.003696895 -0.04795476 -0.01348024)
(0.004515549 -0.04802496 -0.01350409)
(0.005400478 -0.04824822 -0.01358321)
(0.006481903 -0.04859543 -0.01371589)
(0.007882835 -0.04901012 -0.0138998)
(0.009715927 -0.04941225 -0.01413421)
(0.01208671 -0.04970403 -0.01442267)
(0.0151033 -0.04977487 -0.01477685)
(0.01889583 -0.04950619 -0.01522119)
(0.02364601 -0.04877424 -0.0158003)
(0.02963496 -0.04745447 -0.01659192)
(0.03732161 -0.04542906 -0.01773015)
(0.04744364 -0.04260979 -0.01943758)
(0.0611376 -0.03899864 -0.02211674)
(0.08122909 -0.03483115 -0.02661777)
(0.1147478 -0.03093746 -0.03310819)
(-0.1063141 -0.02430318 -0.03024548)
(-0.07406547 -0.02653406 -0.02404041)
(-0.05416102 -0.02918246 -0.01963565)
(-0.04026545 -0.03163451 -0.01699517)
(-0.02979698 -0.03362112 -0.0153141)
(-0.02173858 -0.03505549 -0.01420462)
(-0.0154081 -0.03594794 -0.01344556)
(-0.01037066 -0.03635793 -0.01289959)
(-0.006359723 -0.03637222 -0.01248461)
(-0.003205179 -0.03609307 -0.01215307)
(-0.0007860599 -0.03563139 -0.01187669)
(0.00100399 -0.0350972 -0.01163986)
(0.002264816 -0.03459626 -0.01145285)
(0.003135267 -0.03421691 -0.01133107)
(0.003758583 -0.03402702 -0.01127935)
(0.004295965 -0.03406256 -0.01130065)
(0.004917129 -0.03432498 -0.01139477)
(0.005789306 -0.03478127 -0.01155775)
(0.007067161 -0.0353667 -0.01178348)
(0.008888164 -0.0359915 -0.01206642)
(0.01137386 -0.03654882 -0.01240575)
(0.01464171 -0.03692465 -0.01280995)
(0.01882564 -0.03700485 -0.01330248)
(0.02410849 -0.03668281 -0.01392916)
(0.03076866 -0.03586631 -0.01477141)
(0.03925482 -0.03448973 -0.01596828)
(0.05027052 -0.03253635 -0.01774668)
(0.06486817 -0.03008736 -0.02051171)
(0.08571093 -0.02741024 -0.02511537)
(0.1195381 -0.02512671 -0.03160473)
(-0.1094244 -0.02006627 -0.02923674)
(-0.07716285 -0.02128718 -0.02307939)
(-0.05686477 -0.02286587 -0.01863201)
(-0.04238572 -0.0243785 -0.01593623)
(-0.03126697 -0.02558465 -0.0141933)
(-0.02257408 -0.0263741 -0.01301825)
(-0.01567358 -0.02672115 -0.01219052)
(-0.01016021 -0.02665422 -0.01157044)
(-0.005787007 -0.02623818 -0.01107447)
(-0.002398344 -0.02556525 -0.01065422)
(0.0001243374 -0.02474151 -0.01028014)
(0.001871452 -0.02389023 -0.009950864)
(0.002973922 -0.02312384 -0.009688931)
(0.003583628 -0.02254764 -0.00951175)
(0.003879113 -0.02224083 -0.009429454)
(0.004063621 -0.02224632 -0.009448559)
(0.004352394 -0.02256679 -0.009569013)
(0.004955582 -0.02316431 -0.009783584)
(0.006064525 -0.02396421 -0.01007983)
(0.007841816 -0.02486348 -0.01044444)
(0.01042212 -0.02574318 -0.0108689)
(0.01392412 -0.02648191 -0.01135591)
(0.0184752 -0.02696663 -0.01192556)
(0.02424462 -0.02710119 -0.01262316)
(0.03149159 -0.02681557 -0.01353148)
(0.04063499 -0.02607598 -0.01479163)
(0.05232863 -0.02490338 -0.01663013)
(0.06754005 -0.02340511 -0.01944881)
(0.08880648 -0.02182288 -0.02409387)
(0.1226653 -0.02058758 -0.03052997)
(-0.1114451 -0.01658853 -0.02850179)
(-0.07925484 -0.01714462 -0.0224079)
(-0.05871624 -0.01795162 -0.01794773)
(-0.04381796 -0.01872933 -0.0152163)
(-0.03218792 -0.01928023 -0.0134196)
(-0.02296127 -0.01949401 -0.01217689)
(-0.01555606 -0.01932985 -0.01126852)
(-0.009604685 -0.01879812 -0.01055401)
(-0.004891775 -0.01795102 -0.00994863)
(-0.001283103 -0.01687506 -0.00940326)
(0.001321643 -0.01567672 -0.008891756)
(0.00299244 -0.01449214 -0.008434017)
(0.003887325 -0.01344763 -0.008064279)
(0.004170737 -0.01266558 -0.007806114)
(0.004060325 -0.01223882 -0.007678816)
(0.003809317 -0.01221815 -0.007694905)
(0.003685521 -0.01260748 -0.007855004)
(0.003950316 -0.01336373 -0.008146784)
(0.004836322 -0.01440011 -0.008548238)
(0.006533186 -0.01559835 -0.009033623)
(0.009183845 -0.01682317 -0.009582631)
(0.01290094 -0.01794348 -0.01018831)
(0.01779464 -0.01884257 -0.01086516)
(0.02401002 -0.0194301 -0.0116562)
(0.03177532 -0.01964874 -0.01264451)
(0.0414711 -0.019483 -0.01397189)
(0.05369818 -0.01896977 -0.01586354)
(0.06935167 -0.01821778 -0.01871712)
(0.09087936 -0.01742701 -0.0233736)
(0.1246764 -0.01688284 -0.02974063)
(-0.112713 -0.01363997 -0.02795408)
(-0.08060662 -0.01375863 -0.02192261)
(-0.05989838 -0.01401911 -0.01746244)
(-0.04467487 -0.01424346 -0.01470438)
(-0.03262207 -0.01427378 -0.01285738)
(-0.02293177 -0.01400975 -0.01154261)
(-0.0150696 -0.01340527 -0.01054095)
(-0.008709649 -0.01246188 -0.009710251)
(-0.003674113 -0.01122455 -0.0089641)
(0.0001494277 -0.00976976 -0.008246725)
(0.002797703 -0.008229228 -0.007554435)
(0.004373114 -0.006728522 -0.006928366)
(0.005009498 -0.005421543 -0.006409764)
(0.004898175 -0.004444916 -0.006037479)
(0.004300717 -0.003904511 -0.005845756)
(0.003526944 -0.003861422 -0.0058566)
(0.002906948 -0.004321702 -0.006072215)
(0.002761052 -0.005234095 -0.006472858)
(0.003370073 -0.006499837 -0.007022042)
(0.004950887 -0.007985178 -0.007675843)
(0.007650024 -0.009538888 -0.008395388)
(0.01156586 -0.01101762 -0.00916026)
(0.01678324 -0.01229822 -0.009976836)
(0.0234133 -0.01329176 -0.01088505)
(0.03164695 -0.01394872 -0.01196797)
(0.04182234 -0.01426245 -0.01336846)
(0.05449072 -0.01427532 -0.01531112)
(0.07048787 -0.01408661 -0.01819124)
(0.09220059 -0.01385676 -0.0228469)
(0.1259188 -0.01376723 -0.02914616)
(-0.1134566 -0.01108937 -0.02753824)
(-0.0814185 -0.01092967 -0.02156238)
(-0.06057118 -0.01081962 -0.0171054)
(-0.04507598 -0.01065031 -0.01432379)
(-0.03265774 -0.01029716 -0.01242609)
(-0.02255235 -0.009671415 -0.01103357)
(-0.01426895 -0.008727272 -0.009925324)
(-0.007523856 -0.007460935 -0.00895629)
(-0.0021778 -0.005915994 -0.008034919)
(0.001854116 -0.00415489 -0.007099189)
(0.004524533 -0.002329111 -0.006179515)
(0.005983314 -0.0005446215 -0.005319707)
(0.006325097 0.00101365 -0.004585035)
(0.005762103 0.002183327 -0.004043566)
(0.004598073 0.002836882 -0.003754404)
(0.003210522 0.002899921 -0.003754986)
(0.002010224 0.002364346 -0.004050468)
(0.001391518 0.001290309 -0.004610729)
(0.001684021 -0.0002045427 -0.005375473)
(0.003126794 -0.001960574 -0.006269319)
(0.0058553 -0.00379237 -0.007216054)
(0.009957461 -0.005562562 -0.008185026)
(0.01548421 -0.007148389 -0.009175581)
(0.02250583 -0.008462663 -0.01022507)
(0.03117103 -0.009459749 -0.0114177)
(0.04177577 -0.01013813 -0.01289864)
(0.05482611 -0.01053962 -0.01489379)
(0.07111086 -0.01075183 -0.0177984)
(0.0929754 -0.0109016 -0.0224506)
(0.1266293 -0.01109984 -0.02868991)
(-0.1138396 -0.008855071 -0.02721876)
(-0.08184661 -0.008535706 -0.02128971)
(-0.06087305 -0.008197376 -0.01683508)
(-0.04514008 -0.007777222 -0.01402966)
(-0.03239707 -0.007176347 -0.01207976)
(-0.02191487 -0.006318262 -0.01060398)
(-0.01323985 -0.005159125 -0.009377938)
(-0.006131353 -0.003692338 -0.008250286)
(-0.000467393 -0.001948416 -0.007110886)
(0.003734032 -1.945709e-06 -0.005912683)
(0.0064538 0.002024855 -0.004713224)
(0.007755497 0.003945455 -0.003582232)
(0.007761042 0.005614551 -0.002603187)
(0.006699314 0.006868601 -0.001872174)
(0.004924405 0.007573085 -0.001475321)
(0.002881494 0.00764651 -0.001461556)
(0.001056183 0.007081131 -0.001840878)
(-8.495915e-05 0.005939327 -0.002576451)
(-0.0001542311 0.004346722 -0.003583392)
(0.001109517 0.002467035 -0.004756408)
(0.003866068 0.0004526194 -0.005992338)
(0.008158271 -0.001512793 -0.007220914)
(0.01398177 -0.003289201 -0.008419235)
(0.02137354 -0.004804031 -0.009631856)
(0.0304395 -0.006017597 -0.01094737)
(0.04143419 -0.006930742 -0.01251567)
(0.0548246 -0.007583225 -0.0145661)
(0.07136192 -0.00805007 -0.01749635)
(0.09336453 -0.008431626 -0.022147)
(0.1269781 -0.008791663 -0.0283365)
(-0.113983 -0.006880188 -0.02697151)
(-0.0820154 -0.006493599 -0.02108168)
(-0.06092453 -0.006045879 -0.01662695)
(-0.04498095 -0.005502592 -0.013797)
(-0.03194982 -0.004786186 -0.01179405)
(-0.02112878 -0.003831528 -0.01023258)
(-0.01209717 -0.002599745 -0.008882151)
(-0.004652367 -0.001083649 -0.007582135)
(0.001330584 0.0007177972 -0.006191759)
(0.005672015 0.002667923 -0.004717556)
(0.008423268 0.004691636 -0.003230322)
(0.00958465 0.006642692 -0.001803242)
(0.009252781 0.008346601 -0.000549722)
(0.007680796 0.009623323 0.0003907934)
(0.005271706 0.01033271 0.0008917577)
(0.002545705 0.01041046 0.0009230753)
(6.343136e-05 0.009847634 0.0004664928)
(-0.001609872 0.008691021 -0.0004539384)
(-0.002037238 0.007072064 -0.001728987)
(-0.0009499682 0.005168485 -0.003205774)
(0.001825942 0.00314355 -0.004755087)
(0.006280331 0.001173839 -0.006262394)
(0.01239168 -0.0006451595 -0.007698549)
(0.02012971 -0.002213747 -0.009090268)
(0.02956269 -0.003500935 -0.01053661)
(0.04090912 -0.004510839 -0.01219595)
(0.05460238 -0.00527902 -0.01430345)
(0.07136484 -0.005868665 -0.01726118)
(0.09349745 -0.006357628 -0.02191387)
(0.1270945 -0.006779699 -0.02806437)
(-0.1139732 -0.005115066 -0.02677679)
(-0.082026 -0.004738324 -0.02092403)
(-0.06082981 -0.00428068 -0.01646764)
(-0.04470467 -0.003727214 -0.01361338)
(-0.03142545 -0.00301846 -0.0115596)
(-0.02031108 -0.002101473 -0.009915301)
(-0.01096892 -0.0009426919 -0.008442528)
(-0.003216898 0.0004619664 -0.006965171)
(0.003048508 0.002118601 -0.005333497)
(0.007520872 0.003913632 -0.003596303)
(0.01030702 0.005781839 -0.001816846)
(0.01133514 0.007585655 -8.49473e-05)
(0.01067113 0.009139464 0.001414193)
(0.008608076 0.01030396 0.002574636)
(0.005602903 0.01095839 0.003226946)
(0.002236681 0.01103242 0.003282274)
(-0.000869637 0.01051422 0.002708016)
(-0.003050037 0.00946374 0.001578554)
(-0.003839487 0.007990646 6.725354e-05)
(-0.002904527 0.006227956 -0.001713969)
(-0.0001328825 0.004366134 -0.003574475)
(0.004497733 0.00253709 -0.00536884)
(0.01085646 0.0008695562 -0.007033806)
(0.01890508 -0.0005867725 -0.008607509)
(0.02866123 -0.001796812 -0.01018363)
(0.0403135 -0.002764896 -0.01193188)
(0.05426866 -0.003521622 -0.01409516)
(0.07122724 -0.004116836 -0.01708109)
(0.09348042 -0.004608737 -0.02173946)
(0.1270796 -0.005011131 -0.02786194)
(-0.1139211 -0.003521421 -0.02665086)
(-0.08196516 -0.003211611 -0.0208125)
(-0.06067717 -0.002824221 -0.01635128)
(-0.04440514 -0.002355241 -0.01347487)
(-0.03092624 -0.00176259 -0.01137647)
(-0.01957376 -0.001006031 -0.009659903)
(-0.009978069 -5.94005e-05 -0.008078929)
(-0.001957982 0.00107955 -0.006437169)
(0.004495191 0.002411539 -0.004602356)
(0.009114859 0.00387277 -0.002633245)
(0.0119313 0.005387992 -0.0005883448)
(0.01282464 0.006840223 0.001386333)
(0.01188307 0.00809645 0.003161638)
(0.009409983 0.009044774 0.004529491)
(0.00589071 0.009580066 0.005310795)
(0.001971056 0.009642249 0.005389659)
(-0.001678946 0.009217735 0.004715157)
(-0.004280961 0.008362693 0.00339311)
(-0.005368485 0.007167948 0.001613055)
(-0.004588908 0.005749599 -0.0004112839)
(-0.001822031 0.004242652 -0.002548281)
(0.002962388 0.002750652 -0.004609253)
(0.009534993 0.001396656 -0.006475825)
(0.01783387 0.0002154628 -0.008207044)
(0.02785414 -0.000773778 -0.009899752)
(0.03975401 -0.001572931 -0.01172702)
(0.05392064 -0.002205861 -0.01394066)
(0.07104011 -0.002707743 -0.01695419)
(0.09339986 -0.003117899 -0.02162102)
(0.1270173 -0.003436715 -0.02772741)
(-0.1138275 -0.002055088 -0.02655444)
(-0.08188728 -0.001853304 -0.0207388)
(-0.06053498 -0.001595725 -0.01627497)
(-0.04415973 -0.001283961 -0.0133816)
(-0.03054037 -0.0008925625 -0.01124962)
(-0.01902002 -0.0003965575 -0.009478703)
(-0.009246282 0.000220986 -0.007817035)
(-0.001027365 0.0009636812 -0.006052019)
(0.005557766 0.001831661 -0.004068708)
(0.0102834 0.002784013 -0.001923561)
(0.01312114 0.003774846 0.0003226137)
(0.0139136 0.004714308 0.00250853)
(0.01277472 0.00553727 0.004485868)
(0.00999939 0.006158726 0.0060174)
(0.006102296 0.00651018 0.006900725)
(0.001771293 0.006551584 0.006998328)
(-0.002275795 0.006271216 0.006244867)
(-0.005189787 0.005708824 0.004770573)
(-0.006489723 0.004923582 0.002790168)
(-0.005822795 0.004002242 0.0005410731)
(-0.003054079 0.003014017 -0.00179005)
(0.001824646 0.002040193 -0.004047344)
(0.00855989 0.001154986 -0.006073503)
(0.01703931 0.0003810319 -0.00792175)
(0.02724713 -0.0002669936 -0.009703631)
(0.03932206 -0.0007923437 -0.01159203)
(0.05363868 -0.001210813 -0.01384973)
(0.07087507 -0.001542622 -0.01688621)
(0.09332048 -0.001810465 -0.02156171)
(0.1269726 -0.002008347 -0.02766329)
(-0.1137729 -0.0006694485 -0.02651256)
(-0.08184021 -0.0005998177 -0.02070473)
(-0.06045219 -0.0005095078 -0.01623853)
(-0.04402363 -0.0004005377 -0.01333544)
(-0.03033196 -0.0002646148 -0.0111847)
(-0.01872495 -9.301612e-05 -0.009384163)
(-0.008859565 0.0001199552 -0.0076795)
(-0.0005341959 0.0003775602 -0.005849363)
(0.006119461 0.000678662 -0.003786235)
(0.01090203 0.001010749 -0.001546604)
(0.01374168 0.001357652 0.0007922335)
(0.01448662 0.001686785 0.003116236)
(0.01324528 0.001976646 0.00521214)
(0.01031035 0.002196243 0.006839326)
(0.006212975 0.002319926 0.007783143)
(0.001661654 0.002332961 0.007891351)
(-0.002593718 0.002230397 0.00709123)
(-0.005673689 0.002027239 0.005527586)
(-0.007084727 0.001746245 0.003431531)
(-0.006471036 0.001418487 0.00104725)
(-0.003703715 0.001068438 -0.001384341)
(0.001216586 0.0007258302 -0.003746193)
(0.008042194 0.0004148271 -0.005862778)
(0.01661595 0.0001432259 -0.007772751)
(0.02692198 -8.33303e-05 -0.009600742)
(0.03908873 -0.000266866 -0.01152195)
(0.05348409 -0.0004123031 -0.01380171)
(0.07078255 -0.000526274 -0.01685098)
(0.09327585 -0.0006153408 -0.02153249)
(0.1269394 -0.0006764631 -0.02763394)
(-0.1137721 0.0006909471 -0.02651116)
(-0.08184033 0.0006230282 -0.02070385)
(-0.06045305 0.0005323165 -0.01623795)
(-0.04402499 0.0004213362 -0.01333496)
(-0.03033368 0.0002821723 -0.01118438)
(-0.01872695 0.0001063394 -0.009383913)
(-0.008861729 -0.0001116252 -0.007679414)
(-0.000536555 -0.0003747522 -0.005849333)
(0.006117136 -0.0006815901 -0.003786256)
(0.01089963 -0.001019582 -0.001546604)
(0.01373917 -0.001372763 0.0007922388)
(0.01448398 -0.001708786 0.003116136)
(0.01324261 -0.00200593 0.005211885)
(0.01030772 -0.002232942 0.006838893)
(0.006210451 -0.002363959 0.007782515)
(0.00165922 -0.002384037 0.007890545)
(-0.002595969 -0.002288094 0.007090266)
(-0.005675807 -0.002090881 0.005526536)
(-0.007086722 -0.001815344 0.003430424)
(-0.00647291 -0.001492634 0.001046259)
(-0.003705481 -0.001146997 -0.001385343)
(0.001214752 -0.0008085545 -0.003747191)
(0.008040339 -0.0005016392 -0.00586389)
(0.01661429 -0.0002339987 -0.007774138)
(0.02692073 -1.050344e-05 -0.009602857)
(0.03908843 0.0001718639 -0.01152448)
(0.05348551 0.0003191987 -0.0138048)
(0.07078676 0.000440491 -0.01685473)
(0.09328423 0.0005443571 -0.02153738)
(0.1269535 0.0006281282 -0.02764112)
(-0.1138228 0.002076199 -0.02654912)
(-0.08188707 0.001876597 -0.02073628)
(-0.06053744 0.001618534 -0.01627321)
(-0.04416375 0.001304768 -0.01338033)
(-0.0305455 0.000910168 -0.01124862)
(-0.01902596 0.0004099605 -0.009478055)
(-0.009252795 -0.0002125945 -0.007816703)
(-0.001034385 -0.0009607291 -0.006051988)
(0.005550817 -0.001834434 -0.004068741)
(0.01027633 -0.002792579 -0.00192355)
(0.01311369 -0.00378951 0.000322834)
(0.01390574 -0.00473593 0.002508345)
(0.01276681 -0.005566123 0.004485257)
(0.009991677 -0.006194829 0.006016323)
(0.006094898 -0.006553394 0.006899179)
(0.001764156 -0.006601631 0.006996304)
(-0.002282444 -0.006327642 0.006242435)
(-0.005196063 -0.005770921 0.004767806)
(-0.006495667 -0.004990891 0.002787269)
(-0.005828346 -0.00407429 0.0005385857)
(-0.003059281 -0.003090107 -0.001792834)
(0.001819205 -0.002120169 -0.00405034)
(0.008554334 -0.001238699 -0.00607703)
(0.01703411 -0.000468356 -0.007926663)
(0.02724333 0.0001763193 -0.009710908)
(0.03932099 0.0007004148 -0.01160078)
(0.05364267 0.001119935 -0.01386055)
(0.07088762 0.001458485 -0.01689931)
(0.0933466 0.00174095 -0.02157836)
(0.1270198 0.001963532 -0.02768805)
(-0.1139023 0.00354701 -0.02663553)
(-0.08196405 0.003235866 -0.0208078)
(-0.06068138 0.002847257 -0.01634858)
(-0.04441184 0.002376161 -0.01347282)
(-0.03093475 0.001780342 -0.01137494)
(-0.01958369 0.001019647 -0.009658801)
(-0.009988934 6.807574e-05 -0.008078357)
(-0.001969597 -0.00107634 -0.00643707)
(0.00448372 -0.002414127 -0.004602448)
(0.009103285 -0.00388107 -0.00263309)
(0.01191893 -0.005402164 -0.0005872445)
(0.0128114 -0.006861547 0.001386265)
(0.01186992 -0.008124939 0.003160646)
(0.009397287 -0.009080265 0.004527754)
(0.00587861 -0.009622347 0.005308354)
(0.001959618 -0.009691036 0.005386576)
(-0.001689804 -0.009272499 0.00471138)
(-0.004290968 -0.008422716 0.003388821)
(-0.00537781 -0.007232673 0.001608508)
(-0.004597374 -0.005818241 -0.0004154754)
(-0.001830098 -0.004314668 -0.002552857)
(0.002954281 -0.002825521 -0.004614321)
(0.00952661 -0.001474142 -0.006482247)
(0.01782534 -0.0002951785 -0.008217306)
(0.0278478 0.0006928504 -0.009915768)
(0.03975142 0.001492367 -0.01174651)
(0.05392578 0.002127427 -0.0139689)
(0.07105967 0.002635561 -0.01698756)
(0.09344464 0.003057286 -0.02166021)
(0.1271128 0.003394272 -0.0277815)
(-0.1139838 0.005141404 -0.02677994)
(-0.08203093 0.004762655 -0.0209216)
(-0.06083662 0.004303677 -0.01646482)
(-0.04471412 0.003748168 -0.01361088)
(-0.03143729 0.00303637 -0.01155751)
(-0.02032486 0.002115397 -0.00991384)
(-0.01098408 0.0009518003 -0.008441666)
(-0.003232915 -0.0004583716 -0.006964956)
(0.003032203 -0.002120932 -0.005333639)
(0.007504957 -0.003922135 -0.003595779)
(0.01028979 -0.005796792 -0.001813176)
(0.01131649 -0.007607071 -8.456543e-05)
(0.01065293 -0.009167375 0.001412645)
(0.008590744 -0.01033832 0.002572038)
(0.005586507 -0.01099899 0.003223467)
(0.002221279 -0.011079 0.003278013)
(-0.0008840848 -0.01056629 0.002703083)
(-0.003063146 -0.009520502 0.001572885)
(-0.003851249 -0.008051212 6.170938e-05)
(-0.002914944 -0.006291669 -0.001719895)
(-0.0001424863 -0.004432458 -0.003580641)
(0.004488419 -0.00260469 -0.005375551)
(0.01084734 -0.000937803 -0.007041755)
(0.01889704 0.0005187562 -0.008619537)
(0.02865618 0.001730891 -0.01020115)
(0.04031325 0.002702377 -0.011953)
(0.05427764 0.003464651 -0.01412522)
(0.07125261 0.004066118 -0.01711662)
(0.09353348 0.004564183 -0.02178118)
(0.1271866 0.004969285 -0.02791904)
(-0.1139855 0.00690252 -0.02696896)
(-0.08202062 0.006516922 -0.02107811)
(-0.06093312 0.006068556 -0.01662353)
(-0.04499287 0.005523492 -0.01379384)
(-0.03196477 0.004804265 -0.01179147)
(-0.02114628 0.003845829 -0.01023067)
(-0.01211655 0.002609428 -0.008881095)
(-0.004672968 0.001087957 -0.007581869)
(0.001309014 -0.000719317 -0.006192402)
(0.005650626 -0.002676029 -0.004718458)
(0.008401096 -0.004706411 -0.003230854)
(0.009561818 -0.006663185 -0.001804989)
(0.00923042 -0.008372862 -0.000552371)
(0.007659453 -0.009655437 0.0003873791)
(0.005251575 -0.01037045 0.0008872864)
(0.002526845 -0.01045351 0.0009179063)
(4.606955e-05 -0.009895455 0.0004614924)
(-0.001625062 -0.008742873 -0.0004602682)
(-0.002050605 -0.007127148 -0.001736021)
(-0.0009616118 -0.005226417 -0.00321313)
(0.001816357 -0.003203305 -0.004762785)
(0.006271654 -0.00123517 -0.006270543)
(0.01238397 0.0005847805 -0.007707313)
(0.02012463 0.002155767 -0.00910065)
(0.02956192 0.003446511 -0.01054894)
(0.04091476 0.004461058 -0.01220991)
(0.05461781 0.005235585 -0.01432015)
(0.07139485 0.005830865 -0.01728093)
(0.09354843 0.006322987 -0.02193829)
(0.1271758 0.006741662 -0.02809802)
(-0.1138397 0.00887719 -0.0272141)
(-0.08185198 0.008558678 -0.02128533)
(-0.06088305 0.008219892 -0.01683091)
(-0.04515419 0.007798139 -0.01402593)
(-0.03241492 0.007194654 -0.01207659)
(-0.02193585 0.006333065 -0.01060169)
(-0.01326325 0.005169632 -0.009376587)
(-0.006156344 0.003697881 -0.008250026)
(-0.0004938732 0.001948577 -0.007111872)
(0.003707689 -4.546713e-06 -0.005914516)
(0.006427121 -0.002037398 -0.004715674)
(0.007728659 -0.003963204 -0.003585511)
(0.007735004 -0.00563761 -0.002607288)
(0.006674543 -0.006896898 -0.001877086)
(0.004901182 -0.007606387 -0.001481074)
(0.002860019 -0.007684423 -0.001468116)
(0.001036733 -0.007123123 -0.001848056)
(-0.0001019973 -0.005984789 -0.002584315)
(-0.0001689176 -0.0043952 -0.003591847)
(0.001097296 -0.002517582 -0.004765155)
(0.003855874 -0.0005055057 -0.006001285)
(0.008150991 0.001459315 -0.007230214)
(0.01397724 0.003236406 -0.008428908)
(0.02137217 0.004753216 -0.009642069)
(0.03044309 0.005969837 -0.01095831)
(0.04144478 0.006886909 -0.01252753)
(0.05484486 0.007544237 -0.01457932)
(0.0713951 0.008015693 -0.01751153)
(0.0934147 0.008400315 -0.02216534)
(0.1270511 0.008759818 -0.02836059)
(-0.1134561 0.01111179 -0.0275325)
(-0.08142441 0.0109526 -0.02155713)
(-0.06058251 0.01084205 -0.0171006)
(-0.04509212 0.01067124 -0.01431939)
(-0.03267818 0.0103157 -0.01242243)
(-0.02257645 0.009686763 -0.01103079)
(-0.01429588 0.008738737 -0.009923703)
(-0.007552735 0.00746789 -0.008955895)
(-0.002208387 0.005917887 -0.008035964)
(0.001822686 0.004151476 -0.007101442)
(0.004493882 0.002320252 -0.006182972)
(0.005953114 0.0005303968 -0.005324139)
(0.006295917 -0.001032957 -0.004590404)
(0.005734518 -0.002207527 -0.004049846)
(0.004572396 -0.002865712 -0.003761603)
(0.003186919 -0.002932894 -0.003763034)
(0.001988993 -0.002400793 -0.004059253)
(0.001373064 -0.00132969 -0.004620101)
(0.001668509 0.0001626795 -0.005385352)
(0.00311409 0.001917056 -0.006279522)
(0.005845671 0.003748114 -0.007226649)
(0.009951074 0.005517769 -0.008195592)
(0.01548138 0.007103442 -0.009186267)
(0.02250721 0.008418753 -0.01023598)
(0.03117799 0.00941784 -0.01142904)
(0.04179012 0.01009903 -0.01291055)
(0.05485003 0.01050406 -0.01490658)
(0.07114681 0.01072009 -0.01781236)
(0.09302625 0.01087319 -0.02246645)
(0.1266996 0.01107271 -0.02870976)
(-0.1127122 0.01366241 -0.02794739)
(-0.08061315 0.0137814 -0.0219167)
(-0.05991097 0.01404135 -0.01745695)
(-0.04469278 0.01426431 -0.01469947)
(-0.03264478 0.01429247 -0.01285315)
(-0.02295854 0.0140256 -0.01153943)
(-0.01509962 0.0134177 -0.01053894)
(-0.008741989 0.01247035 -0.009709645)
(-0.00370801 0.01122852 -0.008964937)
(0.000114809 0.009769441 -0.008249252)
(0.002763748 0.008224673 -0.007558586)
(0.004339591 0.006719107 -0.006933783)
(0.004977284 0.005407706 -0.006416328)
(0.004867833 0.004426944 -0.006045132)
(0.004272751 0.003882674 -0.005854385)
(0.00350183 0.003836159 -0.005866126)
(0.00288489 0.004293573 -0.00608253)
(0.002742114 0.005203479 -0.006483779)
(0.003354361 0.006467032 -0.007033334)
(0.004938352 0.007950549 -0.007687351)
(0.007640817 0.009503048 -0.008406937)
(0.0115603 0.01098105 -0.009171857)
(0.01678175 0.01226131 -0.009988542)
(0.02341662 0.0132552 -0.01089702)
(0.03165628 0.01391321 -0.01198029)
(0.04183929 0.01422862 -0.01338129)
(0.05451727 0.01424378 -0.0153245)
(0.07052613 0.01405778 -0.0182051)
(0.09225252 0.0138308 -0.02286069)
(0.1259874 0.0137438 -0.02916344)
(-0.1114443 0.01661084 -0.02849443)
(-0.07926199 0.01716709 -0.02240128)
(-0.05872995 0.01797353 -0.01794174)
(-0.0438374 0.01874994 -0.01521082)
(-0.03221245 0.01929892 -0.01341498)
(-0.02299017 0.01951025 -0.01217328)
(-0.01558843 0.0193432 -0.01126622)
(-0.009639652 0.0188082 -0.0105531)
(-0.004928435 0.01795754 -0.009949273)
(-0.001319907 0.01687805 -0.00940556)
(0.001285513 0.01567567 -0.008896359)
(0.002956344 0.01448735 -0.008439893)
(0.003853 0.01343924 -0.00807141)
(0.004138662 0.01265383 -0.007814422)
(0.004030965 0.01222404 -0.007688183)
(0.003783072 0.01220062 -0.007705168)
(0.003662615 0.01258748 -0.007866015)
(0.003930864 0.0133416 -0.008158335)
(0.004820374 0.01437615 -0.008560181)
(0.006520765 0.01557287 -0.00904579)
(0.009175059 0.01679653 -0.009594982)
(0.01289608 0.01791598 -0.01020082)
(0.01779414 0.01881449 -0.01087793)
(0.02401463 0.01940185 -0.01166928)
(0.03178613 0.01962075 -0.01265804)
(0.04148957 0.01945572 -0.01398589)
(0.05372605 0.01894361 -0.01587816)
(0.06939091 0.01819313 -0.0187324)
(0.09093241 0.0174043 -0.02338993)
(0.1247477 0.01686316 -0.0297599)
(-0.1094237 0.02008829 -0.02922868)
(-0.07717062 0.02130917 -0.02307228)
(-0.05687944 0.02288724 -0.01862546)
(-0.04240634 0.02439867 -0.0159304)
(-0.03129286 0.02560313 -0.01418828)
(-0.02260442 0.02639053 -0.01301439)
(-0.01570747 0.02673524 -0.01218794)
(-0.01019666 0.02666575 -0.01156937)
(-0.005825047 0.02624702 -0.01107494)
(-0.002436681 0.02557139 -0.01065641)
(8.617937e-05 0.02474413 -0.01028441)
(0.001834366 0.0238902 -0.00995685)
(0.002938592 0.02312111 -0.009696298)
(0.003550732 0.02254239 -0.009520375)
(0.003849148 0.02223329 -0.009439172)
(0.004036954 0.02223673 -0.009459213)
(0.004329257 0.02255536 -0.009580412)
(0.004936084 0.0231513 -0.009795577)
(0.006048719 0.02394982 -0.01009225)
(0.007829715 0.02484789 -0.01045722)
(0.01041383 0.02572659 -0.01088197)
(0.01391987 0.02646445 -0.01136932)
(0.01847545 0.02694845 -0.01193932)
(0.02425006 0.02708247 -0.01263738)
(0.03150323 0.02679653 -0.01354618)
(0.04065416 0.02605684 -0.0148069)
(0.05235696 0.02488439 -0.016646)
(0.06757948 0.02338656 -0.01946552)
(0.08886002 0.0218053 -0.02411202)
(0.1227384 0.02057196 -0.0305512)
(-0.1063137 0.02432474 -0.03023696)
(-0.07407388 0.02655532 -0.02403277)
(-0.05417645 0.02920301 -0.01962879)
(-0.04028689 0.03165395 -0.01698896)
(-0.02982364 0.03363914 -0.01530891)
(-0.02176963 0.03507186 -0.01420055)
(-0.01544257 0.03596254 -0.01344291)
(-0.0104076 0.03637065 -0.0128984)
(-0.006398111 0.03638302 -0.01248506)
(-0.003243963 0.03610193 -0.01215519)
(-0.0008245169 0.03563808 -0.01188082)
(0.0009669429 0.03510195 -0.01164588)
(0.002229583 0.0345993 -0.01146036)
(0.003102597 0.03421832 -0.01133989)