/*--------------------------------*- C++ -*----------------------------------*\
| =========                 |                                                 |
| \\      /  F ield         | OpenFOAM: The Open Source CFD Toolbox           |
|  \\    /   O peration     | Version:  2506                                  |
|   \\  /    A nd           | Website:  www.openfoam.com                      |
|    \\/     M anipulation  |                                                 |
\*---------------------------------------------------------------------------*/
FoamFile
{
    version     2.0;
    format      ascii;
    arch        "LSB;label=32;scalar=64";
    class       volScalarField;
    location    "30/airRegion";
    object      k;
}
// * * * * * * * * * * * * * * * * * * * * * * * * * * * * * * * * * * * * * //

dimensions      [0 2 -2 0 0 0 0];

internalField   nonuniform List<scalar> 
260661
(
0.1648456
0.1458486
0.1424508
0.1427948
0.1434491
0.1440663
0.1446126
0.1450899
0.1455089
0.1458793
0.1462091
0.1465042
0.1467694
0.1470086
0.147225
0.1474211
0.1475993
0.1477615
0.1479094
0.1480444
0.1481676
0.1482802
0.1483831
0.1484769
0.1485624
0.1486401
0.1487105
0.1487741
0.1488313
0.1488826
0.1489283
0.148969
0.1490052
0.1490375
0.1490667
0.1490938
0.1491201
0.1491472
0.1491772
0.149213
0.1492583
0.1493176
0.149396
0.1494957
0.1496027
0.1496315
0.1491621
0.1462732
0.1382944
0.1070219
0.1458478
0.142418
0.1426464
0.143502
0.1444247
0.1452708
0.1460156
0.146669
0.1472452
0.1477566
0.148213
0.148622
0.1489901
0.1493222
0.1496228
0.1498954
0.1501431
0.1503686
0.1505742
0.1507617
0.150933
0.1510895
0.1512323
0.1513626
0.1514813
0.1515892
0.1516869
0.1517752
0.1518546
0.1519258
0.1519894
0.152046
0.1520964
0.1521416
0.1521826
0.1522208
0.1522578
0.152296
0.1523382
0.1523882
0.1524511
0.1525331
0.1526421
0.1527845
0.1529535
0.1530821
0.1528005
0.1501229
0.1416065
0.1063125
0.1424481
0.1426444
0.1440238
0.1453272
0.1465776
0.1477018
0.1486925
0.1495657
0.150339
0.1510273
0.1516427
0.152195
0.1526923
0.1531411
0.1535474
0.1539158
0.1542505
0.1545551
0.1548327
0.155086
0.1553172
0.1555283
0.155721
0.1558966
0.1560565
0.1562018
0.1563333
0.1564521
0.1565589
0.1566546
0.1567401
0.1568163
0.1568843
0.1569452
0.1570006
0.1570523
0.1571024
0.1571538
0.1572104
0.1572768
0.1573597
0.1574672
0.1576098
0.1577981
0.1580325
0.1582593
0.1581342
0.1556357
0.1470062
0.104875
0.1427893
0.1434967
0.1453236
0.1470066
0.1485871
0.150005
0.1512591
0.1523691
0.1533553
0.154235
0.1550228
0.1557304
0.1563678
0.1569433
0.1574642
0.1579366
0.1583657
0.1587562
0.159112
0.1594365
0.1597327
0.160003
0.1602495
0.1604742
0.1606786
0.1608641
0.1610321
0.1611835
0.1613196
0.1614416
0.1615505
0.1616475
0.1617341
0.1618118
0.1618823
0.161948
0.1620117
0.1620766
0.1621475
0.16223
0.1623317
0.1624623
0.162634
0.1628595
0.1631412
0.1634285
0.1633784
0.1609046
0.1518938
0.1038577
0.1434398
0.1444146
0.1465683
0.1485808
0.1504696
0.1521695
0.1536798
0.1550216
0.1562171
0.1572858
0.1582441
0.1591057
0.1598822
0.1605836
0.1612186
0.1617945
0.1623176
0.1627937
0.1632274
0.1636229
0.1639838
0.164313
0.1646133
0.1648867
0.1651353
0.1653607
0.1655646
0.1657483
0.1659132
0.1660608
0.1661924
0.1663098
0.1664143
0.1665081
0.1665932
0.1666722
0.1667483
0.1668256
0.166909
0.1670048
0.1671214
0.1672691
0.1674604
0.1677074
0.1680089
0.168306
0.1682321
0.1656147
0.1559127
0.103287
0.1440517
0.145254
0.1476841
0.1499889
0.152159
0.1541203
0.1558702
0.1574302
0.1588237
0.1600718
0.1611924
0.1622009
0.1631105
0.1639325
0.1646767
0.1653519
0.1659653
0.1665236
0.1670322
0.1674959
0.1679191
0.1683049
0.1686568
0.168977
0.1692679
0.1695313
0.1697693
0.1699835
0.1701756
0.1703474
0.1705003
0.1706364
0.1707575
0.1708661
0.1709642
0.1710551
0.1711421
0.1712296
0.1713229
0.1714286
0.171555
0.1717125
0.1719124
0.1721642
0.1724589
0.1727164
0.1725063
0.1696721
0.159343
0.1039865
0.1445913
0.1459899
0.1486634
0.1512294
0.153654
0.155854
0.1578242
0.1595859
0.1611634
0.1625786
0.1638509
0.164997
0.1660313
0.1669665
0.1678137
0.1685824
0.1692811
0.1699169
0.1704963
0.1710247
0.1715068
0.1719464
0.172347
0.1727113
0.173042
0.1733412
0.173611
0.1738534
0.1740706
0.1742642
0.1744365
0.1745897
0.1747257
0.1748472
0.1749567
0.1750577
0.1751536
0.175249
0.1753494
0.1754611
0.1755924
0.1757522
0.1759501
0.1761902
0.1764502
0.1765967
0.1760022
0.1728661
0.164905
0.1052325
0.14506
0.1466318
0.1495219
0.1523214
0.1549751
0.1573914
0.1595623
0.1615087
0.1632551
0.1648244
0.1662368
0.1675103
0.1686604
0.1697009
0.1706438
0.1714997
0.1722779
0.1729864
0.1736323
0.1742214
0.1747589
0.1752489
0.1756953
0.176101
0.1764688
0.1768011
0.1771003
0.1773686
0.1776085
0.1778219
0.1780114
0.1781794
0.1783283
0.178461
0.1785801
0.1786892
0.178792
0.1788932
0.1789978
0.1791122
0.1792437
0.1794
0.1795874
0.1798036
0.1800101
0.1800137
0.1788973
0.1769965
0.1913092
0.2671638
0.1454684
0.1471939
0.1502767
0.1532849
0.1561441
0.1587554
0.1611081
0.1632224
0.1651228
0.1668328
0.1683737
0.1697642
0.1710209
0.1721585
0.17319
0.1741267
0.1749788
0.1757551
0.1764629
0.1771087
0.177698
0.1782352
0.1787244
0.1791686
0.1795709
0.1799339
0.1802601
0.180552
0.180812
0.181043
0.1812475
0.1814283
0.1815881
0.18173
0.1818569
0.1819722
0.1820801
0.1821847
0.1822913
0.1824056
0.1825341
0.1826832
0.1828573
0.1830502
0.1832228
0.1832141
0.1823323
0.1787563
0.1691522
0.1065888
0.1458262
0.1476881
0.1509426
0.1541367
0.1571799
0.1599663
0.1624829
0.1647489
0.1667889
0.168627
0.1702849
0.1717822
0.1731365
0.1743633
0.1754762
0.1764875
0.1774081
0.1782471
0.1790125
0.1797113
0.1803491
0.1809307
0.18146
0.1819404
0.1823747
0.1827658
0.1831162
0.183429
0.1837069
0.1839533
0.1841705
0.1843621
0.1845307
0.1846799
0.1848127
0.1849327
0.1850437
0.18515
0.1852565
0.1853685
0.1854915
0.1856305
0.1857875
0.1859523
0.1860809
0.1860013
0.1849842
0.1812638
0.1718066
0.1066107
0.1461409
0.148124
0.151531
0.1548907
0.1580982
0.1610415
0.1637052
0.1661078
0.1682738
0.1702277
0.1719917
0.1735862
0.1750293
0.1763374
0.177525
0.178605
0.1795887
0.1804859
0.1813049
0.1820533
0.1827365
0.1833594
0.1839263
0.1844404
0.1849044
0.1853212
0.1856938
0.1860254
0.1863188
0.1865779
0.1868056
0.187006
0.1871817
0.1873362
0.1874732
0.1875962
0.1877089
0.1878153
0.1879202
0.1880281
0.1881439
0.1882711
0.1884089
0.188543
0.1886195
0.188416
0.1869188
0.184541
0.1986385
0.2821163
0.1464184
0.1485091
0.1520516
0.1555585
0.1589122
0.1619956
0.1647909
0.167316
0.1695954
0.1716535
0.1735133
0.1751957
0.1767195
0.1781017
0.1793575
0.1805004
0.1815422
0.1824932
0.1833623
0.1841567
0.1848824
0.1855446
0.1861468
0.1866922
0.1871837
0.1876242
0.1880166
0.1883644
0.188671
0.1889408
0.1891771
0.1893839
0.1895647
0.1897231
0.1898627
0.1899872
0.1901001
0.1902054
0.1903074
0.1904103
0.190518
0.1906334
0.1907542
0.1908661
0.19092
0.1907364
0.1895983
0.1857285
0.1755144
0.1059514
0.1466633
0.1488494
0.152512
0.1561494
0.1596331
0.1628411
0.1657539
0.1683884
0.1707691
0.1729207
0.1748666
0.1766282
0.1782249
0.1796743
0.1809923
0.1821927
0.1832878
0.1842886
0.1852039
0.1860416
0.1868074
0.1875062
0.1881415
0.1887165
0.1892335
0.1896954
0.1901054
0.1904672
0.190785
0.191063
0.1913056
0.1915171
0.1917014
0.1918621
0.1920028
0.1921273
0.1922396
0.1923427
0.1924408
0.1925379
0.192637
0.19274
0.1928433
0.1929317
0.1929547
0.1927266
0.1915117
0.1876126
0.1777033
0.1059263
0.1468793
0.1491496
0.1529184
0.1566714
0.1602702
0.1635887
0.1666057
0.1693376
0.1718087
0.1740438
0.1760668
0.1778994
0.1795617
0.1810718
0.182446
0.1836988
0.1848429
0.1858894
0.1868477
0.1877256
0.1885288
0.1892621
0.1899288
0.1905314
0.191072
0.1915534
0.1919787
0.1923524
0.192679
0.1929634
0.1932106
0.193425
0.193611
0.1937724
0.1939131
0.1940369
0.1941471
0.1942473
0.194341
0.1944317
0.1945218
0.1946119
0.1946972
0.1947597
0.1947415
0.1944077
0.192687
0.1900807
0.2048463
0.2961585
0.1470692
0.1494139
0.1532763
0.157131
0.1608314
0.1642475
0.1673568
0.1701749
0.172726
0.1750354
0.1771269
0.1790229
0.1807439
0.1823086
0.1837335
0.1850336
0.1862223
0.1873108
0.1883088
0.1892239
0.1900622
0.190828
0.1915239
0.1921524
0.1927148
0.1932137
0.1936525
0.1940359
0.1943691
0.194658
0.1949078
0.1951235
0.19531
0.195471
0.1956108
0.1957328
0.1958403
0.195937
0.1960259
0.1961099
0.196191
0.1962692
0.1963394
0.1963843
0.1963522
0.1960726
0.1948635
0.1908609
0.180348
0.1038821
0.1472355
0.1496455
0.15359
0.157534
0.1613235
0.1648254
0.1680158
0.1709098
0.1735315
0.1759063
0.1780586
0.1800108
0.181784
0.1833972
0.1848675
0.1862104
0.1874393
0.1885659
0.1896001
0.1905496
0.1914204
0.1922163
0.1929395
0.1935919
0.1941743
0.1946888
0.1951391
0.1955302
0.1958684
0.1961601
0.1964111
0.1966268
0.1968127
0.1969725
0.1971107
0.1972302
0.1973346
0.1974274
0.197511
0.1975881
0.1976601
0.1977263
0.1977812
0.1978066
0.197754
0.1974868
0.1965093
0.1926527
0.1790779
0.1025981
0.1473804
0.1498473
0.1538633
0.1578852
0.1617524
0.1653291
0.1685903
0.1715506
0.1742342
0.1766664
0.1788718
0.1808735
0.1826928
0.1843489
0.1858594
0.1872401
0.1885051
0.1896659
0.1907327
0.1917134
0.1926138
0.1934373
0.1941857
0.19486
0.1954604
0.1959886
0.1964485
0.1968458
0.1971876
0.1974809
0.1977321
0.197947
0.1981315
0.1982895
0.1984251
0.1985419
0.1986432
0.1987316
0.19881
0.19888
0.1989427
0.1989966
0.1990352
0.1990387
0.1989539
0.1986028
0.197296
0.1932426
0.1825897
0.1032907
0.1475055
0.1500216
0.1540995
0.1581885
0.1621229
0.1657644
0.1690868
0.1721046
0.1748417
0.1773238
0.1795754
0.1816201
0.1834794
0.1851731
0.1867188
0.1881327
0.1894293
0.1906203
0.1917159
0.1927244
0.193651
0.1944991
0.19527
0.1959639
0.1965802
0.1971203
0.1975884
0.1979908
0.1983348
0.1986288
0.1988795
0.1990934
0.1992761
0.1994322
0.1995653
0.1996795
0.1997774
0.1998615
0.1999345
0.1999975
0.2000506
0.2000919
0.2001128
0.2000913
0.1999643
0.1994795
0.1975115
0.1947953
0.2094639
0.3051865
0.1476123
0.1501704
0.1543011
0.1584476
0.1624394
0.1661362
0.169511
0.1725779
0.1753609
0.1778856
0.1801769
0.1822585
0.1841522
0.1858779
0.1874539
0.1888964
0.19022
0.1914367
0.1925573
0.1935895
0.1945387
0.1954081
0.1961983
0.1969089
0.1975389
0.1980893
0.1985642
0.1989707
0.1993167
0.1996112
0.1998614
0.2000744
0.2002555
0.2004097
0.2005407
0.2006523
0.2007469
0.200827
0.2008949
0.200951
0.2009949
0.2010243
0.2010302
0.2009896
0.2008398
0.2003423
0.1985531
0.1942695
0.1859023
0.1088854
0.147702
0.1502954
0.1544705
0.1586653
0.1627053
0.1664486
0.1698675
0.1729758
0.1757974
0.178358
0.1806827
0.1827953
0.1847178
0.1864705
0.1880718
0.1895381
0.1908841
0.1921225
0.1932636
0.194315
0.1952826
0.1961692
0.1969753
0.1976996
0.1983409
0.1988996
0.1993803
0.1997905
0.2001388
0.200434
0.2006841
0.2008964
0.2010768
0.2012296
0.2013591
0.2014683
0.2015602
0.2016367
0.2016998
0.2017493
0.2017841
0.2018011
0.2017896
0.2017232
0.2015334
0.2009561
0.1988531
0.1959992
0.2104643
0.3069756
0.1477756
0.150398
0.1546095
0.1588439
0.1629237
0.1667052
0.1701603
0.1733026
0.1761558
0.1787459
0.181098
0.183236
0.1851821
0.1869568
0.1885785
0.1900639
0.1914277
0.1926831
0.19384
0.1949063
0.195888
0.1967874
0.1976052
0.1983398
0.1989897
0.1995552
0.2000411
0.2004548
0.2008056
0.2011023
0.2013534
0.2015661
0.2017464
0.2018986
0.2020272
0.2021349
0.2022247
0.2022981
0.202357
0.2024003
0.2024269
0.202433
0.2024071
0.2023219
0.2021117
0.2015743
0.1999675
0.1956117
0.1844718
0.1051949
0.1478339
0.1504793
0.1547198
0.1589857
0.1630968
0.1669087
0.1703926
0.1735618
0.1764403
0.1790537
0.1814274
0.1835854
0.18555
0.1873416
0.1889791
0.190479
0.1918562
0.1931237
0.1942917
0.1953682
0.1963592
0.1972672
0.1980927
0.1988342
0.19949
0.2000607
0.200551
0.2009685
0.201322
0.2016212
0.2018743
0.2020884
0.2022697
0.2024224
0.202551
0.2026581
0.2027464
0.2028175
0.2028728
0.2029107
0.2029297
0.2029254
0.2028849
0.202779
0.2025396
0.201963
0.2003168
0.1958959
0.1846099
0.1050712
0.1478775
0.1505402
0.1548024
0.1590919
0.1632268
0.1670614
0.1705669
0.1737564
0.1766537
0.1792845
0.1816743
0.1838471
0.1858252
0.1876292
0.1892777
0.1907874
0.1921733
0.1934485
0.1946232
0.1957052
0.1967009
0.1976127
0.1984418
0.1991866
0.1998457
0.20042
0.2009139
0.2013351
0.2016925
0.2019954
0.2022514
0.2024682
0.2026517
0.2028059
0.2029354
0.2030428
0.2031306
0.2032002
0.2032525
0.203286
0.2032982
0.2032842
0.2032287
0.2030994
0.2028188
0.2021069
0.1998126
0.196705
0.2104073
0.3041646
0.147907
0.1505814
0.1548583
0.1591638
0.1633147
0.1671648
0.1706849
0.1738881
0.1767981
0.1794407
0.1818412
0.1840237
0.1860104
0.187822
0.189477
0.1909923
0.1923825
0.1936608
0.1948376
0.1959209
0.1969168
0.1978284
0.198657
0.1994016
0.2000615
0.2006378
0.2011347
0.2015598
0.2019215
0.2022286
0.202489
0.2027096
0.2028961
0.203053
0.2031843
0.2032928
0.2033809
0.2034498
0.2035001
0.2035302
0.2035372
0.2035154
0.2034487
0.203303
0.2029972
0.2022492
0.1999967
0.1950196
0.185413
0.1109114
0.1479225
0.1506031
0.1548879
0.159202
0.1633614
0.1672198
0.1707478
0.1739582
0.1768749
0.1795236
0.1819295
0.1841166
0.1861073
0.187922
0.1895791
0.1910955
0.192486
0.1937631
0.1949375
0.1960178
0.1970096
0.1979168
0.198741
0.1994823
0.2001405
0.200717
0.2012162
0.2016449
0.2020115
0.2023236
0.202589
0.2028143
0.203005
0.2031655
0.2032994
0.2034098
0.2034992
0.2035682
0.2036176
0.2036452
0.2036479
0.203619
0.2035402
0.2033727
0.2030215
0.2021184
0.1990937
0.1947662
0.2085239
0.3526836
0.1479242
0.1506055
0.1548912
0.1592063
0.1633667
0.1672261
0.1707549
0.1739661
0.1768833
0.1795322
0.1819381
0.1841248
0.1861145
0.1879275
0.1895824
0.1910956
0.192482
0.1937539
0.194922
0.1959951
0.1969791
0.1978783
0.1986951
0.1994301
0.2000841
0.2006591
0.2011595
0.2015915
0.2019625
0.2022798
0.2025505
0.202781
0.2029763
0.2031407
0.203278
0.2033911
0.2034822
0.2035523
0.2036017
0.2036284
0.2036291
0.2035963
0.2035112
0.2033343
0.2029693
0.202046
0.1989876
0.1945763
0.2080393
0.3530398
0.1479119
0.1505884
0.154868
0.1591766
0.1633304
0.1671834
0.170706
0.1739113
0.1768229
0.1794663
0.1818668
0.1840479
0.1860319
0.1878388
0.1894871
0.1909931
0.1923714
0.1936345
0.1947931
0.1958559
0.196829
0.1977175
0.1985245
0.199251
0.199899
0.200471
0.2009711
0.2014052
0.2017798
0.2021019
0.2023774
0.202613
0.2028128
0.2029812
0.2031221
0.2032381
0.2033314
0.2034034
0.203454
0.2034812
0.203482
0.2034489
0.2033642
0.2031907
0.2028426
0.2020366
0.1997272
0.1946758
0.1848048
0.1103734
0.1478856
0.1505518
0.1548185
0.1591129
0.1632526
0.1670919
0.1706015
0.1737945
0.1766944
0.1793267
0.1817165
0.1838873
0.185861
0.1876577
0.1892956
0.1907907
0.1921576
0.1934088
0.1945551
0.1956048
0.1965649
0.1974406
0.1982355
0.1989519
0.1995924
0.2001598
0.2006582
0.2010931
0.2014702
0.201796
0.2020759
0.2023158
0.20252
0.2026924
0.2028367
0.2029559
0.2030518
0.2031262
0.2031787
0.2032077
0.2032097
0.2031775
0.203093
0.2029184
0.2025681
0.2017524
0.1993332
0.1960922
0.2068231
0.2808768
0.147845
0.1504953
0.1547418
0.1590144
0.1631323
0.1669506
0.1704402
0.1736144
0.1764965
0.1791121
0.181486
0.1836416
0.1856006
0.1873829
0.1890066
0.1904875
0.19184
0.1930766
0.1942077
0.195242
0.1961872
0.1970484
0.1978297
0.1985346
0.1991661
0.1997274
0.2002226
0.2006566
0.2010349
0.2013631
0.2016464
0.2018897
0.2020975
0.2022736
0.2024212
0.2025434
0.2026425
0.2027195
0.2027747
0.2028067
0.2028116
0.2027827
0.2027022
0.2025325
0.2021875
0.2013842
0.1990894
0.1940652
0.1842614
0.1099813
0.1477895
0.150418
0.1546373
0.1588801
0.1629683
0.1667579
0.1702203
0.1733689
0.176227
0.17882
0.1811727
0.1833083
0.1852481
0.187012
0.1886176
0.1900809
0.1914159
0.192635
0.1937487
0.194766
0.1956943
0.1965394
0.1973061
0.1979983
0.1986194
0.1991732
0.1996636
0.2000953
0.2004731
0.2008022
0.2010875
0.2013333
0.2015438
0.2017228
0.2018734
0.2019984
0.2021004
0.2021804
0.2022391
0.202275
0.202284
0.2022598
0.2021833
0.2020148
0.2016586
0.2007505
0.197746
0.1933906
0.2065616
0.3472429
0.1477185
0.1503192
0.1545034
0.1587083
0.1627584
0.1665114
0.1699391
0.173055
0.1758826
0.1784471
0.1807731
0.1828834
0.1847996
0.1865408
0.1881248
0.1895671
0.1908815
0.1920806
0.1931748
0.194173
0.1950831
0.1959108
0.1966615
0.1973399
0.1979494
0.1984941
0.198978
0.1994057
0.1997815
0.2001098
0.2003956
0.2006429
0.200855
0.201036
0.2011889
0.2013166
0.2014214
0.2015047
0.2015674
0.2016081
0.2016234
0.2016069
0.2015408
0.2013861
0.2010483
0.2001618
0.1971706
0.192765
0.205689
0.3464972
0.1476312
0.1501975
0.1543387
0.1584967
0.1625002
0.1662081
0.1695932
0.1726691
0.1754593
0.177989
0.1802824
0.1823624
0.18425
0.1859643
0.1875226
0.1889404
0.1902315
0.191408
0.1924804
0.1934578
0.1943478
0.195157
0.1958907
0.196554
0.1971508
0.197685
0.1981609
0.1985828
0.1989547
0.1992807
0.1995655
0.1998124
0.2000253
0.2002075
0.2003621
0.200492
0.2005993
0.2006859
0.2007532
0.2007999
0.2008232
0.2008179
0.2007684
0.2006403
0.2003513
0.1996213
0.1974158
0.1924522
0.1827528
0.1105197
0.1475264
0.1500516
0.1541412
0.1582431
0.1621904
0.1658444
0.1691784
0.1722064
0.174952
0.1774402
0.179695
0.1817391
0.1835931
0.1852759
0.1868047
0.1881946
0.1894591
0.1906104
0.1916587
0.1926133
0.1934818
0.194271
0.1949865
0.1956334
0.196216
0.1967385
0.1972049
0.1976195
0.1979859
0.1983081
0.1985904
0.1988357
0.1990481
0.1992305
0.1993859
0.1995172
0.199627
0.199717
0.1997888
0.1998422
0.1998746
0.1998814
0.1998486
0.199744
0.1994899
0.1988152
0.1966271
0.1936637
0.2048545
0.2778685
0.1474029
0.1498797
0.1539084
0.1579442
0.1618255
0.1654159
0.1686899
0.1716617
0.1743549
0.1767944
0.1790042
0.1810065
0.1828217
0.1844684
0.1859633
0.1873215
0.1885563
0.1896795
0.1907015
0.1916312
0.1924766
0.1932443
0.1939402
0.1945694
0.1951365
0.1956459
0.1961014
0.1965069
0.1968662
0.1971831
0.1974612
0.197704
0.1979145
0.1980961
0.1982514
0.1983837
0.1984954
0.1985887
0.1986653
0.1987258
0.1987684
0.1987892
0.1987765
0.1987019
0.1984946
0.1979142
0.1960756
0.1917905
0.1832109
0.1071266
0.1472593
0.1496798
0.1536378
0.1575966
0.1614012
0.1649178
0.1681219
0.1710285
0.173661
0.1760444
0.1782022
0.1801564
0.1819272
0.1835327
0.1849894
0.1863119
0.1875135
0.1886057
0.1895988
0.1905014
0.1913218
0.1920664
0.1927411
0.1933513
0.1939016
0.1943964
0.1948395
0.1952346
0.1955852
0.1958952
0.1961679
0.1964067
0.1966142
0.1967938
0.1969484
0.197081
0.1971942
0.1972903
0.1973717
0.1974394
0.1974925
0.1975277
0.1975342
0.1974852
0.1973105
0.1967552
0.1947691
0.1921114
0.2039705
0.2753494
0.1470938
0.1494495
0.153326
0.1571962
0.1609123
0.1643439
0.1674679
0.1702995
0.1728625
0.1751814
0.1772799
0.1791793
0.1808996
0.1824586
0.1838722
0.185155
0.1863197
0.1873777
0.1883391
0.1892124
0.1900054
0.190725
0.191377
0.1919668
0.192499
0.1929775
0.1934066
0.1937898
0.1941306
0.1944324
0.1946982
0.1949314
0.1951348
0.1953116
0.1954646
0.1955967
0.1957108
0.1958095
0.1958955
0.1959705
0.1960345
0.1960853
0.1961139
0.1960965
0.1959686
0.1954952
0.1937786
0.1895979
0.1813753
0.1078773
0.1469044
0.149186
0.1529692
0.1567381
0.1603532
0.1636877
0.1667201
0.1694663
0.17195
0.1741958
0.1762269
0.1780645
0.1797278
0.1812344
0.1826
0.1838384
0.1849622
0.1859825
0.1869091
0.1877505
0.1885141
0.189207
0.1898346
0.1904021
0.1909143
0.1913754
0.1917891
0.1921588
0.1924881
0.19278
0.1930377
0.1932642
0.1934626
0.1936355
0.1937858
0.1939167
0.1940311
0.1941319
0.1942222
0.1943043
0.1943789
0.1944451
0.1944946
0.1945044
0.1944098
0.193962
0.1920966
0.1894295
0.2029607
0.2897409
0.1466886
0.1488858
0.152563
0.1562166
0.1597169
0.1629412
0.1658697
0.1685191
0.1709132
0.1730764
0.1750315
0.1767994
0.1783989
0.179847
0.1811589
0.1823482
0.1834269
0.1844058
0.1852942
0.1861007
0.1868325
0.1874962
0.1880972
0.1886409
0.1891316
0.1895734
0.18997
0.1903249
0.1906413
0.1909221
0.1911704
0.1913892
0.1915812
0.1917491
0.1918959
0.1920248
0.1921388
0.1922411
0.1923352
0.1924241
0.1925094
0.1925916
0.1926644
0.1927083
0.1926657
0.1923438
0.1909976
0.1868622
0.1763986
0.1065233
0.1464433
0.1485452
0.1521022
0.1556251
0.1589954
0.1620952
0.1649065
0.1674467
0.1697399
0.1718103
0.1736803
0.1753702
0.1768984
0.1782813
0.1795337
0.1806685
0.1816975
0.1826309
0.1834778
0.1842462
0.1849433
0.1855752
0.1861475
0.1866653
0.1871327
0.1875535
0.1879316
0.1882701
0.1885722
0.1888406
0.1890783
0.1892879
0.1894723
0.1896342
0.1897766
0.1899026
0.1900155
0.1901186
0.1902158
0.1903109
0.1904064
0.1905042
0.1905997
0.1906758
0.1906792
0.1904239
0.189182
0.1851418
0.174696
0.106335
0.1461651
0.1481591
0.1515803
0.1549558
0.1581795
0.1611391
0.1638187
0.1662364
0.1684166
0.1703832
0.1721581
0.1737611
0.17521
0.1765207
0.1777071
0.1787819
0.1797561
0.1806396
0.181441
0.182168
0.1828273
0.183425
0.1839663
0.1844559
0.1848978
0.1852961
0.1856539
0.1859744
0.1862605
0.186515
0.1867405
0.1869399
0.1871156
0.1872705
0.1874074
0.1875295
0.1876403
0.1877434
0.1878429
0.1879433
0.1880482
0.1881608
0.188278
0.1883844
0.1884249
0.18817
0.1866067
0.1841313
0.1980113
0.2816535
0.1458492
0.1477216
0.1509898
0.1541992
0.1572582
0.1600604
0.1625926
0.1648735
0.1669276
0.1687786
0.1704478
0.1719544
0.1733156
0.1745464
0.1756602
0.1766689
0.177583
0.1784117
0.1791634
0.1798452
0.1804635
0.1810239
0.1815314
0.1819904
0.1824049
0.1827784
0.1831141
0.1834149
0.1836836
0.1839228
0.184135
0.1843227
0.1844886
0.1846353
0.1847655
0.1848828
0.1849904
0.1850923
0.1851931
0.1852977
0.185411
0.1855379
0.1856785
0.185822
0.1859234
0.1858085
0.1847463
0.1809626
0.1714076
0.1067094
0.14549
0.1472254
0.1503212
0.1533439
0.1562181
0.1588446
0.1612122
0.1633409
0.1652551
0.1669779
0.1685303
0.1699305
0.1711949
0.1723378
0.1733717
0.1743079
0.1751562
0.1759253
0.1766227
0.1772553
0.1778289
0.1783488
0.1788196
0.1792455
0.1796302
0.1799768
0.1802884
0.1805678
0.1808174
0.1810397
0.181237
0.1814119
0.1815666
0.1817039
0.1818264
0.1819375
0.1820407
0.1821401
0.1822407
0.182348
0.1824679
0.1826068
0.1827679
0.1829445
0.183097
0.1830643
0.1821509
0.1785359
0.1688939
0.1066582
0.1450798
0.1466608
0.1495629
0.152376
0.1550437
0.1574742
0.1596592
0.1616193
0.1633789
0.1649605
0.1663842
0.1676676
0.1688259
0.1698724
0.1708191
0.1716761
0.1724526
0.1731565
0.1737949
0.174374
0.1748991
0.175375
0.1758061
0.1761961
0.1765484
0.1768659
0.1771514
0.1774073
0.1776361
0.1778399
0.1780209
0.1781815
0.1783238
0.1784503
0.1785638
0.1786674
0.1787649
0.1788602
0.1789588
0.1790666
0.1791904
0.179338
0.1795151
0.1797188
0.1799107
0.1798977
0.1787633
0.176841
0.1910817
0.2664805
0.144609
0.146016
0.1487004
0.1512788
0.1537162
0.1559292
0.1579123
0.1596868
0.1612765
0.1627034
0.1639866
0.1651423
0.1661849
0.1671266
0.1679783
0.1687493
0.1694479
0.1700812
0.1706556
0.1711766
0.1716492
0.1720777
0.1724658
0.1728169
0.1731341
0.17342
0.1736772
0.1739078
0.1741139
0.1742975
0.1744607
0.1746055
0.1747341
0.1748486
0.1749517
0.1750465
0.1751366
0.1752261
0.1753204
0.175426
0.1755504
0.1757029
0.1758925
0.176123
0.1763722
0.1765068
0.1758995
0.1727493
0.164769
0.1052793
0.1440672
0.1452768
0.1477166
0.1500323
0.1522139
0.1541868
0.1559482
0.1575196
0.1589244
0.1601832
0.1613138
0.1623314
0.1632489
0.1640774
0.1648266
0.1655049
0.1661194
0.1666767
0.1671822
0.1676408
0.1680568
0.1684341
0.1687759
0.1690852
0.1693647
0.1696166
0.1698432
0.1700464
0.170228
0.1703899
0.1705338
0.1706614
0.1707749
0.1708761
0.1709675
0.1710521
0.1711332
0.1712148
0.1713023
0.1714024
0.1715228
0.1716741
0.1718673
0.1721116
0.1723982
0.1726466
0.1724264
0.1695814
0.1592467
0.1040117
0.1434528
0.1444338
0.1465958
0.1486177
0.1505163
0.1522262
0.1537465
0.1550983
0.1563036
0.1573817
0.1583489
0.1592187
0.1600026
0.1607103
0.1613502
0.1619295
0.1624545
0.1629306
0.1633627
0.1637548
0.1641105
0.1644332
0.1647257
0.1649904
0.1652296
0.1654452
0.1656392
0.1658132
0.1659686
0.1661072
0.1662303
0.1663395
0.1664366
0.1665233
0.1666018
0.1666748
0.1667453
0.166817
0.1668952
0.166986
0.1670975
0.16724
0.1674259
0.1676671
0.1679624
0.1682528
0.1681717
0.1655469
0.1558429
0.1033043
0.1427996
0.1435121
0.1453458
0.1470365
0.1486251
0.1500512
0.1513137
0.152432
0.1534263
0.154314
0.1551094
0.155824
0.1564678
0.157049
0.1575744
0.1580502
0.1584815
0.1588728
0.1592279
0.1595504
0.159843
0.1601086
0.1603493
0.1605672
0.1607642
0.1609418
0.1611016
0.1612448
0.1613728
0.1614868
0.1615881
0.1616779
0.1617578
0.1618291
0.1618937
0.1619539
0.1620124
0.1620726
0.1621389
0.1622171
0.1623144
0.1624409
0.1626084
0.1628295
0.1631066
0.163389
0.1633338
0.1608551
0.1518435
0.1038694
0.1424557
0.1426559
0.1440407
0.14535
0.1466068
0.1477374
0.1487345
0.1496143
0.1503941
0.1510887
0.1517102
0.1522683
0.1527708
0.1532244
0.1536346
0.154006
0.1543429
0.1546487
0.1549263
0.1551785
0.1554075
0.1556153
0.1558038
0.1559745
0.1561288
0.156268
0.1563931
0.1565053
0.1566055
0.1566947
0.1567739
0.1568441
0.1569064
0.156962
0.1570124
0.1570594
0.1571052
0.1571527
0.1572055
0.1572685
0.1573479
0.1574522
0.1575916
0.1577766
0.1580077
0.1582311
0.1581026
0.155601
0.1469718
0.104882
0.1458523
0.142426
0.1426582
0.1435182
0.1444456
0.1452964
0.1460461
0.1467043
0.1472853
0.1478015
0.1482625
0.1486759
0.1490481
0.1493839
0.1496877
0.1499629
0.1502125
0.1504392
0.1506451
0.1508323
0.1510023
0.1511567
0.1512968
0.1514237
0.1515384
0.1516418
0.1517348
0.1518182
0.1518926
0.1519588
0.1520174
0.1520693
0.1521153
0.1521563
0.1521933
0.1522278
0.1522615
0.1522965
0.1523358
0.1523832
0.1524435
0.1525232
0.1526299
0.1527698
0.1529366
0.1530629
0.1527792
0.1500999
0.1415845
0.106316
0.1648461
0.1458531
0.1424588
0.1428059
0.1434636
0.1440841
0.1446338
0.1451146
0.1455371
0.145911
0.1462441
0.1465425
0.1468107
0.1470527
0.1472715
0.1474697
0.1476495
0.1478128
0.1479612
0.1480961
0.1482187
0.1483301
0.1484311
0.1485227
0.1486054
0.14868
0.1487471
0.1488071
0.1488607
0.1489082
0.1489503
0.1489875
0.1490203
0.1490494
0.1490756
0.1491
0.1491237
0.1491484
0.1491763
0.1492101
0.1492535
0.1493112
0.149388
0.1494861
0.1495915
0.1496188
0.1491481
0.1462586
0.1382815
0.1070219
0.1466961
0.1370823
0.13439
0.1344314
0.1350144
0.1356371
0.1362057
0.136709
0.1371539
0.1375489
0.1379015
0.1382178
0.1385024
0.1387594
0.1389921
0.1392031
0.1393949
0.1395695
0.1397287
0.1398739
0.1400065
0.1401276
0.1402382
0.140339
0.1404308
0.1405142
0.1405898
0.140658
0.1407193
0.1407742
0.1408232
0.1408668
0.1409055
0.1409401
0.1409714
0.1410005
0.1410288
0.1410579
0.1410902
0.1411284
0.141176
0.1412359
0.1413085
0.1413813
0.1414002
0.1411748
0.1400966
0.1365108
0.1275319
0.110146
0.1370816
0.1345906
0.1343875
0.135061
0.1359072
0.1367141
0.1374353
0.1380719
0.138635
0.1391357
0.1395831
0.1399846
0.140346
0.1406723
0.1409677
0.1412355
0.1414789
0.1417004
0.1419022
0.1420863
0.1422543
0.1424077
0.1425476
0.1426752
0.1427913
0.1428967
0.1429922
0.1430784
0.1431558
0.1432252
0.1432871
0.1433423
0.1433915
0.1434355
0.1434755
0.1435128
0.1435492
0.1435867
0.1436282
0.1436772
0.1437379
0.1438144
0.1439083
0.1440091
0.1440645
0.1438866
0.1428605
0.1392502
0.1294826
0.1061633
0.1343873
0.1343855
0.1353846
0.1365616
0.137709
0.1387501
0.1396712
0.1404836
0.1412029
0.1418428
0.1424145
0.1429274
0.1433888
0.1438051
0.1441814
0.1445224
0.1448319
0.1451134
0.1453695
0.145603
0.1458158
0.1460099
0.1461868
0.146348
0.1464944
0.1466273
0.1467476
0.146856
0.1469534
0.1470406
0.1471185
0.1471879
0.1472498
0.1473054
0.147356
0.1474034
0.1474495
0.1474971
0.1475494
0.1476107
0.1476858
0.1477799
0.1478953
0.1480221
0.148108
0.1479623
0.1469534
0.1432336
0.1326681
0.1025362
0.1344258
0.1350557
0.1365581
0.1380962
0.1395273
0.1408078
0.1419378
0.1429344
0.1438171
0.1446022
0.1453034
0.1459319
0.1464967
0.1470057
0.1474654
0.1478814
0.1482586
0.1486012
0.1489127
0.1491963
0.1494545
0.1496898
0.149904
0.1500989
0.1502758
0.1504362
0.150581
0.1507115
0.1508286
0.1509334
0.1510269
0.1511103
0.1511848
0.1512517
0.1513127
0.1513697
0.1514253
0.1514823
0.1515446
0.1516166
0.1517039
0.1518116
0.1519418
0.1520826
0.1521767
0.1520224
0.1509591
0.1470288
0.1356615
0.09983164
0.1350047
0.1358972
0.1377001
0.1395215
0.1412049
0.1427088
0.1440365
0.1452085
0.1462467
0.14717
0.1479942
0.1487322
0.1493948
0.1499913
0.1505293
0.1510158
0.1514563
0.151856
0.1522191
0.1525492
0.1528496
0.153123
0.1533716
0.1535974
0.1538022
0.1539875
0.1541547
0.1543051
0.15444
0.1545605
0.1546679
0.1547637
0.1548492
0.1549261
0.1549961
0.1550616
0.1551251
0.15519
0.1552602
0.1553404
0.1554359
0.1555512
0.1556867
0.1558261
0.1559022
0.1556939
0.1545046
0.1502861
0.1381808
0.09783942
0.135622
0.1366975
0.1387334
0.1407933
0.1426996
0.1444049
0.1459128
0.147245
0.1484255
0.1494751
0.1504113
0.1512489
0.1520003
0.1526758
0.1532845
0.1538342
0.1543316
0.1547823
0.1551913
0.1555628
0.1559006
0.1562075
0.1564864
0.1567393
0.1569684
0.1571753
0.1573617
0.157529
0.1576789
0.1578126
0.1579317
0.1580378
0.1581323
0.1582173
0.1582947
0.1583669
0.1584367
0.1585075
0.1585831
0.1586682
0.1587676
0.1588844
0.1590159
0.159139
0.1591711
0.1588597
0.1574632
0.1529163
0.1402444
0.09756724
0.1361834
0.1374101
0.1396442
0.1419112
0.1440141
0.145899
0.147568
0.1490438
0.1503517
0.1515141
0.1525502
0.1534763
0.1543061
0.1550513
0.155722
0.1563271
0.1568739
0.1573689
0.1578177
0.158225
0.1585948
0.1589305
0.159235
0.1595109
0.1597603
0.1599852
0.1601873
0.1603685
0.1605303
0.1606745
0.1608027
0.1609167
0.1610183
0.1611095
0.1611923
0.1612694
0.1613436
0.1614181
0.1614969
0.161584
0.1616833
0.1617963
0.1619162
0.1620109
0.1619768
0.1615105
0.1598071
0.1550918
0.1438912
0.09569342
0.1366777
0.1380356
0.1404431
0.1428922
0.1451685
0.1472123
0.1490243
0.1506274
0.1520479
0.1533097
0.1544335
0.1554369
0.1563349
0.1571404
0.1578646
0.158517
0.159106
0.1596388
0.1601212
0.1605586
0.1609553
0.161315
0.1616408
0.1619355
0.1622014
0.1624406
0.1626551
0.1628469
0.1630178
0.1631697
0.1633045
0.1634242
0.1635307
0.163626
0.1637125
0.1637927
0.1638695
0.163946
0.1640258
0.1641125
0.1642089
0.1643144
0.1644181
0.1644788
0.164371
0.1637377
0.1617092
0.1574636
0.1523086
0.1065573
0.1371114
0.138585
0.1411455
0.1437549
0.1461842
0.1483684
0.1503064
0.1520215
0.1535408
0.1548895
0.1560894
0.1571596
0.1581161
0.1589731
0.1597427
0.1604351
0.1610596
0.1616238
0.1621343
0.1625965
0.1630153
0.1633945
0.1637374
0.164047
0.1643258
0.164576
0.1647998
0.1649993
0.1651765
0.1653337
0.1654727
0.1655959
0.1657052
0.165803
0.1658915
0.1659733
0.1660511
0.166128
0.1662072
0.1662917
0.1663835
0.1664804
0.1665687