/*--------------------------------*- C++ -*----------------------------------*\
| =========                 |                                                 |
| \\      /  F ield         | OpenFOAM: The Open Source CFD Toolbox           |
|  \\    /   O peration     | Version:  2506                                  |
|   \\  /    A nd           | Website:  www.openfoam.com                      |
|    \\/     M anipulation  |                                                 |
\*---------------------------------------------------------------------------*/
FoamFile
{
    version     2.0;
    format      ascii;
    arch        "LSB;label=32;scalar=64";
    class       volScalarField;
    location    "30/airRegion";
    object      nut;
}
// * * * * * * * * * * * * * * * * * * * * * * * * * * * * * * * * * * * * * //

dimensions      [0 2 -1 0 0 0 0];

internalField   nonuniform List<scalar> 
260661
(
0.09693977
0.0993136
0.1001053
0.100316
0.1003255
0.1002877
0.1002412
0.1001937
0.1001474
0.1001029
0.1000608
0.1000212
0.09998412
0.09994955
0.0999174
0.09988755
0.09985988
0.09983424
0.09981051
0.09978855
0.09976826
0.09974953
0.09973228
0.09971642
0.09970189
0.09968864
0.09967662
0.09966579
0.09965611
0.09964755
0.09964007
0.09963363
0.0996282
0.0996237
0.09962007
0.09961718
0.0996149
0.09961299
0.09961111
0.09960865
0.09960447
0.09959606
0.0995771
0.09952963
0.09939755
0.09898945
0.09759413
0.09230847
0.07120157
0.01460686
0.0993136
0.09998673
0.1002728
0.10032
0.1002802
0.1002157
0.1001445
0.1000724
0.1000017
0.09993375
0.09986912
0.09980813
0.09975092
0.09969746
0.09964767
0.09960138
0.09955842
0.09951859
0.09948169
0.09944754
0.09941597
0.09938682
0.09935995
0.09933525
0.09931262
0.09929197
0.09927322
0.0992563
0.09924117
0.09922775
0.09921598
0.0992058
0.09919713
0.09918985
0.09918385
0.09917894
0.09917487
0.0991713
0.09916772
0.09916327
0.09915646
0.09914421
0.09911926
0.099062
0.09891361
0.09848061
0.09706855
0.09189432
0.07150683
0.01466594
0.1001053
0.1002729
0.1003142
0.1002571
0.1001611
0.100048
0.09992897
0.09980953
0.09969277
0.09958049
0.09947369
0.09937291
0.09927836
0.09919003
0.09910776
0.0990313
0.09896036
0.09889462
0.09883374
0.09877743
0.09872538
0.09867735
0.09863311
0.09859245
0.09855521
0.09852123
0.09849038
0.09846256
0.09843764
0.09841551
0.09839606
0.09837917
0.09836468
0.09835241
0.09834215
0.09833358
0.0983263
0.09831976
0.09831316
0.09830525
0.09829395
0.09827526
0.09824031
0.09816675
0.09799091
0.09751287
0.09604455
0.09092283
0.07139555
0.01456188
0.1003161
0.1003201
0.1002574
0.1001329
0.09997627
0.09980176
0.09962009
0.09943815
0.09926024
0.09908902
0.09892606
0.09877223
0.09862788
0.09849302
0.09836743
0.09825074
0.0981425
0.09804222
0.09794942
0.0978636
0.09778434
0.09771122
0.0976439
0.09758208
0.09752548
0.09747387
0.09742704
0.09738482
0.097347
0.09731341
0.09728386
0.09725815
0.09723603
0.09721723
0.09720138
0.09718805
0.09717665
0.09716635
0.09715605
0.09714405
0.09712761
0.0971017
0.09705578
0.09696457
0.09675973
0.09623677
0.09472268
0.08969835
0.0710722
0.01448902
0.1003259
0.1002808
0.1001618
0.09997692
0.09975347
0.09950746
0.09925193
0.09899589
0.09874524
0.09850376
0.09827375
0.09805649
0.09785257
0.09766203
0.09748459
0.09731976
0.09716692
0.09702536
0.0968944
0.09677335
0.0966616
0.09655857
0.09646376
0.09637675
0.09629714
0.09622462
0.09615888
0.09609962
0.09604659
0.09599952
0.09595811
0.09592205
0.09589102
0.09586459
0.09584229
0.0958235
0.09580743
0.09579305
0.0957789
0.09576288
0.09574166
0.09570927
0.09565359
0.09554642
0.09531427
0.09474627
0.09317924
0.08823072
0.07044517
0.01445044
0.1002885
0.1002169
0.1000497
0.09980372
0.099509
0.09918532
0.09884897
0.09851146
0.09818054
0.0978613
0.09755693
0.09726923
0.09699906
0.09674657
0.09651144
0.09629303
0.09609053
0.09590303
0.09572961
0.09556938
0.09542149
0.09528523
0.0951599
0.09504497
0.09493991
0.0948443
0.09475771
0.09467976
0.09461007
0.09454826
0.09449393
0.09444666
0.09440598
0.09437136
0.09434218
0.09431767
0.09429687
0.09427851
0.09426091
0.09424164
0.09421692
0.09418008
0.09411756
0.09399788
0.09373906
0.09310882
0.09139628
0.08619809
0.06872724
0.01449959
0.1002428
0.1001467
0.09993222
0.09962422
0.09925621
0.09885206
0.09843152
0.09800876
0.09759355
0.09719242
0.09680954
0.09644737
0.09610708
0.09578896
0.09549266
0.09521744
0.09496227
0.09472604
0.09450759
0.09430579
0.0941196
0.09394811
0.09379049
0.09364604
0.09351414
0.09339422
0.09328577
0.09318828
0.09310124
0.09302417
0.09295651
0.09289771
0.09284719
0.09280428
0.09276822
0.09273812
0.09271285
0.09269101
0.09267076
0.09264949
0.09262318
0.09258474
0.09251957
0.09239249
0.09210782
0.09137933
0.08927763
0.08266747
0.06284705
0.01458546
0.1001962
0.100076
0.09981503
0.09944553
0.0990044
0.0985196
0.09801429
0.09750537
0.09700467
0.09652027
0.09605741
0.09561922
0.09520729
0.09482205
0.09446316
0.09412977
0.09382067
0.0935345
0.09326988
0.09302548
0.09280005
0.09259249
0.09240182
0.09222722
0.09206795
0.09192336
0.09179279
0.09167561
0.0915712
0.09147889
0.09139804
0.0913279
0.09126778
0.09121685
0.09117426
0.09113898
0.0911098
0.09108524
0.09106337
0.09104155
0.09101576
0.09097889
0.09091591
0.09078937
0.09049123
0.08966622
0.08694981
0.07678198
0.04806179
0.0229551
0.1001511
0.1000072
0.09970136
0.09927213
0.09875976
0.09819607
0.09760754
0.09701375
0.09642862
0.09586178
0.09531957
0.09480587
0.09432267
0.09387062
0.09344939
0.09305801
0.09269509
0.09235909
0.0920484
0.09176144
0.09149679
0.09125321
0.09102956
0.09082493
0.09063851
0.09046951
0.09031719
0.09018077
0.09005949
0.08995251
0.08985902
0.08977811
0.08970897
0.08965062
0.08960209
0.08956228
0.08952991
0.08950347
0.08948108
0.08946017
0.0894369
0.08940444
0.08934834
0.08923279
0.08895916
0.08823748
0.08616738
0.0799012
0.06182083
0.01467565
0.1001084
0.0999418
0.09959313
0.09910686
0.09852632
0.09788691
0.09721827
0.09654255
0.09587572
0.09522895
0.09460969
0.09402256
0.09347
0.09295285
0.09247082
0.09202284
0.09160738
0.09122267
0.09086688
0.09053823
0.09023516
0.08995625
0.08970034
0.0894664
0.08925355
0.08906095
0.08888773
0.08873299
0.08859579
0.08847505
0.08836985
0.08827907
0.08820174
0.08813677
0.08808308
0.08803951
0.08800475
0.08797733
0.08795543
0.08793671
0.08791761
0.08789178
0.08784543
0.08774364
0.0874893
0.08679623
0.08476995
0.07853163
0.06043501
0.01467538
0.1000684
0.09988034
0.09949145
0.0989515
0.09830665
0.09759566
0.0968511
0.09609758
0.095353
0.09463004
0.09393725
0.09327996
0.09266105
0.09208159
0.09154129
0.09103902
0.0905731
0.09014155
0.08974233
0.08937349
0.08903334
0.08872037
0.08843334
0.08817121
0.08793309
0.08771805
0.08752514
0.08735331
0.08720142
0.08706819
0.08695245
0.08685291
0.08676843
0.0866978
0.08663983
0.08659331
0.08655696
0.08652939
0.08650889
0.08649337
0.08647966
0.08646192
0.08642698
0.08633981
0.08609761
0.08536708
0.08289072
0.07355765
0.04710451
0.02360472
0.1000313
0.09982326
0.09939698
0.09880706
0.09810228
0.09732446
0.0965089
0.09568248
0.09486496
0.09407042
0.09330846
0.0925851
0.09190366
0.0912654
0.09067009
0.0901165
0.08960278
0.08912679
0.0886863
0.08827922
0.08790372
0.08755824
0.08724156
0.08695269
0.0866907
0.08645467
0.08624355
0.08605612
0.085891
0.0857467
0.08562178
0.08551474
0.08542425
0.08534899
0.08528767
0.08523906
0.0852019
0.0851749
0.08515653
0.08514496
0.08513741
0.08512859
0.08510614
0.08503706
0.08482806
0.08420558
0.08232774
0.07655787
0.05995205
0.01463894
0.09999729
0.09977073
0.09931003
0.09867407
0.09791402
0.09707448
0.09619326
0.09529935
0.0944142
0.09355324
0.09272703
0.09194226
0.09120264
0.09050962
0.08986299
0.08926147
0.08870305
0.0881854
0.08770614
0.08726303
0.08685416
0.086478
0.08613336
0.08581932
0.08553507
0.08527969
0.08505201
0.08485061
0.08467387
0.08452006
0.08438741
0.0842742
0.08417888
0.08410004
0.08403631
0.08398641
0.08394913
0.08392332
0.08390766
0.08390055
0.08389964
0.08390018
0.08389048
0.08383848
0.08365196
0.0830571
0.08119893
0.07535179
0.0584647
0.01463269
0.09996633
0.09972282
0.09923071
0.09855271
0.09774216
0.09684619
0.09590487
0.09494912
0.09400197
0.09308005
0.09219483
0.09135361
0.09056047
0.08981703
0.0891231
0.08847732
0.08787753
0.08732125
0.08680592
0.0863292
0.08588916
0.08548428
0.0851135
0.08477604
0.08447123
0.0841982
0.08395569
0.08374206
0.08355539
0.08339362
0.08325468
0.08313662
0.08303767
0.08295627
0.08289099
0.08284053
0.08280377
0.08277967
0.08276712
0.08276481
0.0827708
0.08278086
0.08278409
0.082749
0.08257921
0.08195701
0.07966666
0.07069144
0.04515887
0.02418407
0.09993839
0.0996795
0.09915896
0.09844291
0.09758665
0.09663957
0.09564378
0.09463194
0.09362851
0.09265124
0.09171241
0.09081986
0.08997801
0.08918864
0.08845159
0.08776537
0.08712772
0.08653597
0.08598744
0.0854797
0.08501079
0.08457928
0.08418429
0.08382523
0.08350164
0.08321271
0.08295711
0.08273298
0.08253805
0.08236987
0.08222606
0.0821044
0.08200289
0.08191987
0.08185379
0.08180342
0.08176771
0.08174571
0.08173656
0.08173924
0.08175214
0.08177159
0.08178785
0.08177295
0.08164514
0.08116302
0.07957751
0.07446369
0.05897919
0.01450146
0.09991338
0.09964066
0.09909464
0.09834448
0.09744722
0.09645428
0.09540961
0.09434741
0.09329342
0.09226641
0.09127936
0.09034064
0.08945495
0.08862421
0.08784826
0.08712553
0.08645359
0.08582967
0.08525092
0.08471487
0.08421954
0.08376362
0.08334645
0.08296772
0.08262716
0.08232411
0.08205716
0.08182418
0.08162251
0.08144933
0.08130191
0.08117776
0.08107463
0.08099075
0.08092451
0.08087477
0.0808405
0.08082092
0.08081537
0.08082313
0.08084287
0.08087145
0.08089993
0.08090234
0.08080475
0.08039992
0.07910252
0.07515615
0.06247147
0.01441492
0.09989121
0.0996062
0.09903756
0.09825711
0.09732346
0.09628981
0.09520171
0.09409478
0.09299587
0.09192464
0.09089473
0.08991494
0.08899024
0.08812266
0.08731205
0.08655675
0.08585418
0.08520145
0.08459561
0.08403408
0.08351492
0.08303697
0.0825998
0.08220337
0.08184772
0.08153232
0.08125566
0.08101532
0.08080828
0.0806313
0.0804813
0.08035552
0.08025153
0.08016739
0.08010154
0.08005276
0.08002019
0.08000323
0.0800014
0.08001426
0.0800408
0.08007817
0.08011749
0.08013136
0.08003846
0.07959891
0.07807227
0.07306983
0.05789807
0.01445965
0.09987179
0.09957596
0.09898748
0.09818047
0.09721489
0.09614551
0.09501932
0.09387312
0.09273478
0.09162473
0.09055718
0.08954133
0.0885824
0.08768245
0.08684137
0.08605744
0.08532793
0.08464985
0.08402013
0.08343611
0.08289592
0.08239851
0.08194368
0.08153168
0.08116286
0.0808368
0.08055193
0.08030554
0.08009426
0.0799144
0.07976259
0.07963578
0.07953139
0.07944739
0.07938219
0.07933459
0.07930388
0.07928961
0.07929154
0.07930949
0.0793428
0.07938886
0.07943857
0.07946164
0.07936177
0.07882423
0.07667629
0.06825397
0.04484363
0.02453761
0.09985501
0.09954983
0.09894417
0.09811418
0.097121
0.09602073
0.09486158
0.09368142
0.09250897
0.09136534
0.09026524
0.08921822
0.08822967
0.08730178
0.08643439
0.08562574
0.08487303
0.08417311
0.08352281
0.08291947
0.08236122
0.08184711
0.08137714
0.08095185
0.08057182
0.08023678
0.07994505
0.07969367
0.07947892
0.07929681
0.07914365
0.07901612
0.07891155
0.07882784
0.07876337
0.07871703
0.07868818
0.07867656
0.07868216
0.07870512
0.07874511
0.07879991
0.07886079
0.07889732
0.07881307
0.07830751
0.07639174
0.06985634
0.05235138
0.01473393
0.09984079
0.09952764
0.09890741
0.09805792
0.0970413
0.09591479
0.09472767
0.09351866
0.09231726
0.09114513
0.09001741
0.08894394
0.0879303
0.08697875
0.08608917
0.08525969
0.08448749
0.08376927
0.08310181
0.08248246
0.08190928
0.08138142
0.08089901
0.08046283
0.08007362
0.07973119
0.07943379
0.07917823
0.07896052
0.07877646
0.07862209
0.07849392
0.07838915
0.07830566
0.07824182
0.07819663
0.07816951
0.07816038
0.07816948
0.07819729
0.07824388
0.07830769
0.07838106
0.07843532
0.07837657
0.07789782
0.07586285
0.06777193
0.04509554
0.02462541
0.09982903
0.09950929
0.098877
0.09801135
0.09697532
0.09582709
0.0946168
0.09338391
0.09215853
0.0909628
0.08981224
0.08871692
0.08768258
0.08671158
0.08580378
0.08495732
0.08416933
0.08343638
0.08275525
0.08212327
0.08153841
0.08099989
0.08050789
0.0800633
0.07966692
0.07931861
0.07901655
0.07875743
0.07853708
0.07835112
0.07819541
0.07806642
0.07796124
0.07787775
0.0778143
0.07776998
0.07774433
0.07773744
0.07774976
0.0777821
0.07783494
0.07790745
0.07799326
0.0780671
0.07804787
0.0776917
0.07624779
0.0713589
0.05680655
0.01458713
0.09981967
0.09949466
0.09885273
0.09797419
0.09692266
0.09575709
0.09452828
0.09327632
0.09203179
0.09081723
0.08964846
0.08853576
0.087485
0.08649862
0.08557653
0.08471685
0.08391668
0.08317259
0.08248129
0.08184005
0.0812468
0.08070075
0.08020201
0.07975149
0.07934996
0.07899724
0.07869146
0.07842926
0.07820642
0.07801844
0.07786117
0.07773101
0.07762505
0.07754117
0.07747775
0.07743395
0.07740941
0.0774044
0.07741956
0.07745601
0.07751461
0.07759517
0.07769214
0.07778127
0.0777832
0.07745816
0.07606869
0.07129699
0.05694927
0.01458
0.09981263
0.09948366
0.09883447
0.09794621
0.09688299
0.09570433
0.09446156
0.09319521
0.09193623
0.09070749
0.08952502
0.08839929
0.08733628
0.08633851
0.08540595
0.08453675
0.08372799
0.08297624
0.08227818
0.08163104
0.08103268
0.08048221
0.07997959
0.0795256
0.0791209
0.07876519
0.07845659
0.07819173
0.0779664
0.07777619
0.07761703
0.0774853
0.07737812
0.07729341
0.07722961
0.07718591
0.07716206
0.07715847
0.07717602
0.07721602
0.07727972
0.0773674
0.0774737
0.07757272
0.07757479
0.07718428
0.07531008
0.0676279
0.04570694
0.02451574
0.09980788
0.09947622
0.09882211
0.09792725
0.09685609
0.09566854
0.09441627
0.09314012
0.09187134
0.09063297
0.08944123
0.08830674
0.08723558
0.08623034
0.08529106
0.08441593
0.08360207
0.08284608
0.08214462
0.08149481
0.08089451
0.0803426
0.07983888
0.07938382
0.07897786
0.07862055
0.07830997
0.07804284
0.07781509
0.07762251
0.07746111
0.07732741
0.0772186
0.07713263
0.07706803
0.077024
0.0770004
0.07699774
0.0770171
0.07705996
0.07712788
0.07722149
0.07733538
0.07744217
0.07744677
0.0770471
0.07524904
0.06885407
0.05157401
0.01494083
0.09980539
0.09947231
0.09881559
0.09791723
0.09684186
0.09564957
0.09439224
0.09311089
0.09183688
0.09059343
0.08939684
0.08825783
0.08718257
0.08617375
0.08523145
0.08435394
0.08353839
0.08278149
0.08207987
0.08143056
0.08083136
0.08028089
0.07977868
0.07932485
0.07891949
0.07856195
0.07825028
0.07798137
0.07775138
0.07755636
0.07739251
0.07725653
0.07714574
0.07705814
0.07699234
0.07694757
0.07692375
0.0769215
0.07694203
0.07698698
0.07705819
0.07715665
0.07727708
0.07739063
0.07739224
0.07692231
0.0746092
0.06507081
0.04003117
0.0263659
0.09980516
0.09947193
0.09881495
0.09791621
0.09684037
0.09564755
0.09438965
0.09310772
0.09183316
0.09058921
0.08939224
0.08825302
0.08717778
0.08616928
0.08522768
0.08435135
0.0835375
0.08278291
0.0820842
0.08143836
0.08084303
0.0802966
0.07979825
0.07934771
0.07894468
0.07858826
0.07827651
0.07800649
0.07777467
0.07757739
0.07741115
0.07727281
0.07715989
0.07707048
0.07700321
0.07695738
0.07693293
0.07693056
0.07695154
0.07699761
0.0770708
0.0771724
0.07729746
0.07741764
0.07742872
0.07697309
0.07468488
0.06517821
0.04004008
0.026384
0.09980721
0.09947511
0.09882019
0.09792421
0.09685168
0.09566256
0.0944086
0.09313074
0.09186031
0.09062047
0.0894276
0.08829245
0.0872213
0.08621698
0.08527972
0.08440798
0.08359906
0.08284976
0.08215675
0.08151695
0.08092787
0.08038768
0.07989517
0.07944968
0.07905051
0.07869651
0.07838574
0.07811546
0.07788248
0.07768343
0.07751513
0.07737465
0.07725972
0.0771685
0.07709968
0.07705259
0.07702721
0.0770242
0.07704492
0.07709112
0.07716488
0.07726764
0.07739488
0.07752034
0.07755026
0.0771863
0.07545571
0.06924907
0.0522588
0.01491692
0.09981153
0.09948185
0.09883133
0.09794124
0.09687578
0.09569456
0.09444903
0.09317987
0.09191819
0.09068702
0.08950265
0.08837578
0.08731271
0.0863163
0.08538685
0.08452292
0.08372191
0.08298065
0.08229583
0.08166438
0.08108364
0.08055154
0.08006655
0.07962762
0.07923368
0.07888334
0.07857466
0.07830511
0.0780718
0.07787166
0.07770182
0.07755964
0.07744297
0.0773501
0.07727978
0.07723134
0.07720478
0.07720074
0.07722056
0.07726599
0.07733913
0.0774414
0.07756855
0.077695
0.07772835
0.07736508
0.07552029
0.06809117
0.04697312
0.02354307
0.09981817
0.09949219
0.09884845
0.09796742
0.09691282
0.09574375
0.09451117
0.09325535
0.09200709
0.09078918
0.08961772
0.08850335
0.08745232
0.08646752
0.08554931
0.08469633
0.08390608
0.08317544
0.08250119
0.08188018
0.08130961
0.08078723
0.08031127
0.07988025
0.07949277
0.07914728
0.07884187
0.07857414
0.07834147
0.07814113
0.07797051
0.07782723
0.07770927
0.07761504
0.07754338
0.0774936
0.0774657
0.07746031
0.07747866
0.07752245
0.07759372
0.0776937
0.07781792
0.07794028
0.07796767
0.07760324
0.07587819
0.06970144
0.05274643
0.01489433
0.09982718
0.09950623
0.09887168
0.09800293
0.09696308
0.09581049
0.09459548
0.09335776
0.09212768
0.09092768
0.08977364
0.08867604
0.08764107
0.0866716
0.08576808
0.08492919
0.08415253
0.08343507
0.08277361
0.08216499
0.08160633
0.08109522
0.08062959
0.08020768
0.07982788
0.07948847
0.0791875
0.07892275
0.07869184
0.07849229
0.07832176
0.0781781
0.07805946
0.07796431
0.07789158
0.07784062
0.07781134
0.07780432
0.07782068
0.07786203
0.07793027
0.07802634
0.07814527
0.07825889
0.07826362
0.07780275
0.0755118
0.06600851
0.04070582
0.02616053
0.09983862
0.09952407
0.09890119
0.09804805
0.09702694
0.0958953
0.09470261
0.09348788
0.09228087
0.09110358
0.08997158
0.08889514
0.08788034
0.08693003
0.08604468
0.08522307
0.08446288
0.08376113
0.08311469
0.0825204
0.08197533
0.08147695
0.08102297
0.0806114
0.08024047
0.07990835
0.07961307
0.07935251
0.07912451
0.07892688
0.07875741
0.07861418
0.07849555
0.07840004
0.07832663
0.07827466
0.07824403
0.07823517
0.07824905
0.07828716
0.07835109
0.07844141
0.07855267
0.07865611
0.07864709
0.07816585
0.07583285
0.06619423
0.04056235
0.02613029
0.09985259
0.09954582
0.09893719
0.0981031
0.09710486
0.09599878
0.09483332
0.09364663
0.09246776
0.09131816
0.09021298
0.08916223
0.08817186
0.08724467
0.08638111
0.08558005
0.08483923
0.08415581
0.08352668
0.0829487
0.08241896
0.08193479
0.08149381
0.08109385
0.08073302
0.0804094
0.08012104
0.07986593
0.07964209
0.07944749
0.07928013
0.0791383
0.07902042
0.07892516
0.0788515
0.07879881
0.07876688
0.07875604
0.07876703
0.07880112
0.07885955
0.07894237
0.07904379
0.07913619
0.07912432
0.07870601
0.0768914
0.07050659
0.05304124
0.0149286
0.09986918
0.09957163
0.09897991
0.09816843
0.09719733
0.09612159
0.09498848
0.09383508
0.0926896
0.09157283
0.09049944
0.08947911
0.08851759
0.08761759
0.08677958
0.08600244
0.08528406
0.08462167
0.08401223
0.08345266
0.08294005
0.08247169
0.08204514
0.08165814
0.08130869
0.08099483
0.08071466
0.08046627
0.0802478
0.08005739
0.0798932
0.0797537
0.07963739
0.07954303
0.07946966
0.07941658
0.0793835
0.07937059
0.07937839
0.07940784
0.07945983
0.07953385
0.07962367
0.07970184
0.07967445
0.07923429
0.0772741
0.0695725
0.0477247
0.02341607
0.09988847
0.09960165
0.09902958
0.0982444
0.09730488
0.09626446
0.09516897
0.0940543
0.09294766
0.09186907
0.09083262
0.08984759
0.0889195
0.08805096
0.0872424
0.08649276
0.08579999
0.08516146
0.08457422
0.08403527
0.08354173
0.0830909
0.08268033
0.08230771
0.08197099
0.08166822
0.08139755
0.08115716
0.08094531
0.08076024
0.08060032
0.08046408
0.08035018
0.08025744
0.0801849
0.08013179
0.08009774
0.08008277
0.08008715
0.08011147
0.08015618
0.08022016
0.08029646
0.08035749
0.08031245
0.07987819
0.07813722
0.07214264
0.05543602
0.01470753
0.09991058
0.099636
0.09908645
0.09833139
0.09742804
0.09642806
0.09537566
0.09430535
0.0932432
0.09220832
0.09121413
0.09026948
0.08937958
0.08854689
0.08777184
0.08705341
0.08638961
0.08577792
0.08521552
0.08469955
0.08422715
0.08379571
0.08340278
0.08304606
0.08272351
0.08243323
0.08217339
0.08194229
0.08173829
0.08155974
0.08140517
0.08127318
0.08116255
0.08107213
0.08100094
0.08094821
0.08091347
0.08089651
0.08089735
0.08091621
0.08095305
0.08100613
0.08106757
0.08110844
0.08103349
0.08053189
0.0784765
0.07055647
0.0482359
0.02331163
0.0999356
0.09967484
0.09915074
0.09842974
0.0975673
0.09661305
0.09560938
0.09458921
0.09357733
0.09259184
0.09164541
0.09074633
0.08989952
0.08910725
0.08836991
0.0876865
0.08705515
0.08647343
0.08593867
0.08544814
0.08499913
0.08458905
0.08421553
0.08387635
0.08356951
0.08329317
0.08304556
0.08282506
0.08263013
0.08245927
0.08231114
0.08218438
0.08207784
0.08199043
0.08192118
0.08186929
0.08183414
0.08181534
0.08181261
0.08182577
0.0818543
0.08189575
0.08194139
0.08196144
0.08186162
0.08134776
0.07945622
0.07306565
0.05548228
0.01475669
0.09996362
0.09971828
0.09922264
0.09853974
0.09772306
0.09681995
0.09587075
0.09490662
0.09395092
0.09302059
0.09212747
0.09127928
0.09048053
0.08973332
0.08903796
0.0883935
0.08779816
0.08724966
0.08674546
0.08628299
0.08585965
0.085473
0.0851208
0.0848009
0.08451139
0.08425046
0.08401648
0.08380793
0.08362334
0.08346136
0.0833207
0.08320012
0.0830985
0.08301482
0.08294813
0.08289755
0.08286233
0.08284189
0.08283566
0.08284307
0.08286309
0.08289264
0.08292226
0.08292143
0.08279338
0.08221999
0.08001348
0.07144779
0.04720152
0.02392684
0.09999472
0.0997664
0.0993023
0.09866158
0.09789557
0.09704907
0.09616013
0.09525797
0.09436434
0.09349497
0.09266073
0.09186871
0.09112301
0.09042551
0.08977643
0.08917486
0.08861912
0.0881071
0.08763644
0.08720469
0.08680946
0.08644843
0.0861195
0.08582067
0.08555011
0.08530615
0.08508724
0.08489196
0.08471894
0.08456696
0.0844348
0.08432132
0.08422547
0.08414627
0.08408274
0.08403396
0.08399907
0.08397728
0.08396774
0.08396948
0.08398094
0.08399839
0.08401183
0.08399164
0.08384969
0.08332277
0.08158871
0.07600864
0.05943593
0.01467179
0.1000289
0.09981923
0.09938973
0.09879531
0.09808485
0.09730038
0.09647742
0.09564306
0.09481731
0.09401454
0.09324462
0.09251393
0.09182614
0.09118287
0.09058427
0.09002946
0.08951688
0.08904457
0.08861035
0.08821198
0.08784726
0.08751405
0.08721039
0.08693442
0.08668447
0.086459
0.08625657
0.08607586
0.08591562
0.08577474
0.0856521
0.08554665
0.08545739
0.08538336
0.08532361
0.08527715
0.08524303
0.08522029
0.08520777
0.08520411
0.08520721
0.08521267
0.08520956
0.08516727
0.08499668
0.08443193
0.08264447
0.07699282
0.06033035
0.01466336
0.1000662
0.09987669
0.09948483
0.0989407
0.09829057
0.09757337
0.09682187
0.09606087
0.0953085
0.09457767
0.09387719
0.09321268
0.09258735
0.09200256
0.09145839
0.09095399
0.09048792
0.09005838
0.0896634
0.08930096
0.08896905
0.08866574
0.08838924
0.0881379
0.08791017
0.08770465
0.08752004
0.08735515
0.08720887
0.08708015
0.08696799
0.08687143
0.08678953
0.08672136
0.08666599
0.08662241
0.08658958
0.08656636
0.08655135
0.08654281
0.08653809
0.08653205
0.0865126
0.08644644
0.08623376
0.08554603
0.0831323
0.07387163
0.04736002
0.02358365
0.1001065
0.0999386
0.09958725
0.09909721
0.09851187
0.0978668
0.09719181
0.09650922
0.09583518
0.09518107
0.09455457
0.09396055
0.09340171
0.09287917
0.09239293
0.09194217
0.09152558
0.09114156
0.09078833
0.09046411
0.0901671
0.08989561
0.08964803
0.0894229
0.08921885
0.08903463
0.08886908
0.08872116
0.08858986
0.08847425
0.08837344
0.08828654
0.0882127
0.08815105
0.08810066
0.08806052
0.08802953
0.08800641
0.08798958
0.08797692
0.0879653
0.08794883
0.08791452
0.08782851
0.0875955
0.08693215
0.08494684
0.07875679
0.06064979
0.01468182
0.1001496
0.1000045
0.09969631
0.09926376
0.09874715
0.09817844
0.09758426
0.09698432
0.0963927
0.09581921
0.09527039
0.0947503
0.09426118
0.0938039
0.09337836
0.09298383
0.09261912
0.09228282
0.09197339
0.09168925
0.09142888
0.09119078
0.09097357
0.09077598
0.09059683
0.09043502
0.09028957
0.09015955
0.0900441
0.0899424
0.08985367
0.08977711
0.08971194
0.08965737
0.08961252
0.08957637
0.08954782
0.0895255
0.08950766
0.08949196
0.08947481
0.08944972
0.08940276
0.08929882
0.08904018
0.08833817
0.08629316
0.08004792
0.06192593
0.01468004
0.100195
0.1000737
0.09981085
0.09943852
0.09899378
0.09850466
0.09799447
0.09748022
0.09697387
0.09648364
0.09601492
0.09557102
0.09515369
0.09476359
0.09440056
0.09406392
0.09375263
0.0934655
0.09320119
0.09295839
0.0927358
0.09253216
0.09234631
0.09217718
0.09202377
0.09188517
0.09176054
0.0916491
0.09155012
0.0914629
0.09138677
0.09132104
0.09126502
0.09121799
0.09117914
0.0911475
0.09112199
0.09110121
0.09108336
0.09106592
0.09104508
0.09101392
0.09095778
0.09083966
0.09055202
0.0897402
0.08704098
0.07689198
0.04815626
0.02292505
0.1002418
0.100145
0.09992893
0.09961862
0.09924762
0.09883991
0.09841531
0.0979881
0.09756814
0.09716208
0.09677421
0.09640712
0.09606213
0.09573969
0.09543961
0.09516128
0.09490383
0.09466626
0.09444747
0.09424639
0.09406195
0.09389313
0.09373899
0.09359865
0.09347131
0.09335623
0.09325272
0.09316014
0.0930779
0.09300542
0.09294215
0.0928875
0.09284089
0.09280169
0.09276917
0.09274246
0.09272052
0.09270204
0.09268522
0.09266755
0.09264516
0.09261109
0.09255096
0.0924299
0.09215254
0.09143298
0.08934225
0.08274457
0.06291684
0.01458846
0.1002879
0.1002157
0.1000473
0.0997995
0.09950243
0.09917593
0.09883636
0.09849529
0.09816056
0.09783734
0.09752889
0.09723716
0.09696309
0.09670696
0.09646856
0.09624738
0.09604271
0.09585376
0.09567965
0.09551955
0.09537261
0.09523805
0.09511512
0.09500315
0.09490152
0.09480963
0.09472697
0.09465303
0.09458735
0.09452947
0.09447894
0.09443531
0.09439809
0.09436676
0.09434071
0.09431917
0.09430123
0.0942857
0.09427091
0.09425452
0.09423283
0.09419925
0.09414039
0.09402494
0.0937711
0.09314677
0.09144069
0.08624656
0.06875798
0.01450123
0.1003255
0.10028
0.1001602
0.09997397
0.09974878
0.09950067
0.09924272
0.098984
0.09873046
0.09848593
0.09825279
0.09803241
0.09782542
0.09763198
0.0974519
0.09728477
0.09713005
0.09698713
0.09685536
0.0967341
0.09662276
0.09652072
0.09642747
0.09634248
0.09626531
0.09619553
0.09613274
0.09607658
0.09602669
0.09598275
0.09594441
0.09591133
0.09588314
0.09585942
0.09583969
0.09582333
0.09580958
0.09579744
0.09578549
0.09577166
0.09575268
0.09572266
0.09566955
0.09556528
0.09533644
0.09477224
0.09320894
0.08826101
0.07045932
0.01445157
0.100316
0.1003198
0.1002564
0.1001311
0.09997323
0.09979727
0.09961391
0.09943009
0.09925013
0.09907674
0.09891155
0.09875545
0.09860887
0.09847186
0.09834428
0.09822583
0.09811611
0.09801468
0.09792112
0.09783496
0.09775578
0.09768318
0.09761679
0.09755626
0.09750127
0.09745154
0.09740679
0.09736677
0.09733125
0.09729998
0.09727273
0.09724925
0.09722929
0.09721254
0.09719865
0.09718716
0.09717749
0.09716886
0.09716016
0.09714973
0.09713487
0.09711058
0.0970664
0.0969771
0.0967744
0.09625383
0.09474189
0.08971724
0.07107932
0.01448977
0.1001054
0.1002727
0.1003137
0.1002562
0.1001594
0.1000454
0.09992526
0.09980461
0.09968653
0.09957283
0.09946455
0.09936227
0.09926622
0.09917644
0.0990928
0.09901511
0.09894311
0.0988765
0.09881501
0.09875834
0.09870623
0.09865842
0.09861467
0.09857476
0.0985385
0.09850571
0.0984762
0.09844983
0.09842644
0.09840588
0.098388
0.09837264
0.09835964
0.09834881
0.09833989
0.09833259
0.09832651
0.09832111
0.09831559
0.09830872
0.09829846
0.09828081
0.09824697
0.0981746
0.09800008
0.09752349
0.09605642
0.09093428
0.07139906
0.01456233
0.09931392
0.09998699
0.1002727
0.1003196
0.1002794
0.1002144
0.1001426
0.1000697
0.0999983
0.0999295
0.09986398
0.09980208
0.09974395
0.09968959
0.09963894
0.09959186
0.0995482
0.09950779
0.09947045
0.09943601
0.09940432
0.09937522
0.09934858
0.09932427
0.09930218
0.09928221
0.09926424
0.09924821
0.099234
0.09922155
0.09921077
0.09920155
0.09919382
0.09918745
0.0991823
0.09917819
0.09917488
0.09917202
0.0991691
0.0991653
0.09915912
0.0991475
0.0991232
0.09906664
0.09891901
0.09848685
0.09707549
0.09190088
0.0715083
0.01466615
0.09693991
0.0993138
0.1001054
0.1003158
0.1003251
0.100287
0.1002402
0.1001922
0.1001454
0.1001004
0.1000578
0.1000176
0.0999799
0.09994475
0.09991204
0.09988167
0.09985353
0.09982749
0.09980344
0.09978127
0.09976086
0.09974212
0.09972497
0.09970933
0.09969511
0.09968227
0.09967074
0.09966046
0.09965137
0.09964344
0.0996366
0.0996308
0.09962598
0.09962208
0.09961901
0.09961666
0.09961487
0.09961342
0.09961198
0.09960993
0.09960615
0.09959814
0.09957959
0.09953256
0.09940094
0.09899335
0.09759841
0.09231236
0.07120221
0.01460676
0.095379
0.09834342
0.09940524
0.09962257
0.09964074
0.09961615
0.09958171
0.09954424
0.09950584
0.0994676
0.09943026
0.09939428
0.09935998
0.09932749
0.09929688
0.09926815
0.09924125
0.09921613
0.09919269
0.09917087
0.09915058
0.09913175
0.09911432
0.09909823
0.09908345
0.09906993
0.09905765
0.09904657
0.09903667
0.09902794
0.09902034
0.09901386
0.09900847
0.09900413
0.09900077
0.0989983
0.09899659
0.09899541
0.09899433
0.09899247
0.09898785
0.09897542
0.09894154
0.09884689
0.09857276
0.09774613
0.09515419
0.08675611
0.06054351
0.01486499
0.09834337
0.09926055
0.09957496
0.09962856
0.09959491
0.09953531
0.09946746
0.09939689
0.0993262
0.099257
0.09919027
0.09912665
0.09906646
0.09900983
0.09895677
0.09890721
0.098861
0.098818
0.09877802
0.0987409
0.09870649
0.09867463
0.09864519
0.09861809
0.0985932
0.09857047
0.09854981
0.09853117
0.0985145
0.09849973
0.09848681
0.09847568
0.09846627
0.09845848
0.0984522
0.09844723
0.09844335
0.09844017
0.09843706
0.09843285
0.09842509
0.09840804
0.09836678
0.09825984
0.09796527
0.0971083
0.09449911
0.08627416
0.06085573
0.01465365
0.09940513
0.0995749
0.09958965
0.09954185
0.09945101
0.0993398
0.09921972
0.0990968
0.09897481
0.09885619
0.09874245
0.09863446
0.09853267
0.0984372
0.098348
0.09826488
0.09818757
0.09811576
0.09804914
0.0979874
0.09793025
0.09787742
0.09782869
0.09778386
0.09774275
0.09770522
0.09767114
0.09764038
0.09761285
0.09758843
0.097567
0.09754846
0.09753265
0.09751941
0.09750849
0.09749961
0.09749236
0.09748612
0.09747997
0.09747228
0.09745992
0.09743604
0.09738382
0.09725863
0.09693406
0.0960337
0.09339682
0.0853423
0.06084459
0.01440927
0.09962245
0.09962854
0.09954195
0.09942777
0.09927477
0.09909823
0.09891035
0.09871919
0.09853018
0.09834689
0.09817154
0.09800538
0.09784901
0.09770259
0.097566
0.09743889
0.09732083
0.09721132
0.09710986
0.09701593
0.09692909
0.09684891
0.09677503
0.09670713
0.09664493
0.09658819
0.0965367
0.09649026
0.0964487
0.09641182