/*--------------------------------*- C++ -*----------------------------------*\
| =========                 |                                                 |
| \\      /  F ield         | OpenFOAM: The Open Source CFD Toolbox           |
|  \\    /   O peration     | Version:  2506                                  |
|   \\  /    A nd           | Website:  www.openfoam.com                      |
|    \\/     M anipulation  |                                                 |
\*---------------------------------------------------------------------------*/
FoamFile
{
    version     2.0;
    format      ascii;
    arch        "LSB;label=32;scalar=64";
    class       volScalarField;
    location    "3500/air";
    object      alphat;
}
// * * * * * * * * * * * * * * * * * * * * * * * * * * * * * * * * * * * * * //

dimensions      [1 -1 -1 0 0 0 0];

internalField   nonuniform List<scalar> 
33752
(
0.009548799
0.009507798
0.009471297
0.009443149
0.009420368
0.009401122
0.009384366
0.009369471
0.009356125
0.009344253
0.009333963
0.009325478
0.009319085
0.00931507
0.009313673
0.009315052
0.009319189
0.009325956
0.009335134
0.009346437
0.009359572
0.009374295
0.009390474
0.009408143
0.009427568
0.009449328
0.009474431
0.009504694
0.009543151
0.009585844
0.009507501
0.00944366
0.009394053
0.009359178
0.009332849
0.009311641
0.00929366
0.00927785
0.009263699
0.009251056
0.009240015
0.009230825
0.009223814
0.009219312
0.009217609
0.009218901
0.009223158
0.009230216
0.009239817
0.009251635
0.009265336
0.009280654
0.009297473
0.009315909
0.009336437
0.009360078
0.009388709
0.009425782
0.009477583
0.009543518
0.009470607
0.009393647
0.009332159
0.0092891
0.009257338
0.009232388
0.0092116
0.009193459
0.009177214
0.009162614
0.009149747
0.009138916
0.009130533
0.00912502
0.009122743
0.009123941
0.009128586
0.009136469
0.009147262
0.009160547
0.00917591
0.009193034
0.009211809
0.009232458
0.009255704
0.00928304
0.009317115
0.009362456
0.009426312
0.00950558
0.009441943
0.009358267
0.009288602
0.009238493
0.009201047
0.009171498
0.009146814
0.009125174
0.009105646
0.009087922
0.009072123
0.009058661
0.009048093
0.009040991
0.009037845
0.00903896
0.009044311
0.009053624
0.009066452
0.009082228
0.009100394
0.009120529
0.009142489
0.00916656
0.009193649
0.009225563
0.009265338
0.009317786
0.009389919
0.009476012
0.009418535
0.009331344
0.009256265
0.009200476
0.009157578
0.009122944
0.009093479
0.009067237
0.009043207
0.009021088
0.009001106
0.008983856
0.008970129
0.008960734
0.008956353
0.008957391
0.008963825
0.008975287
0.00899114
0.009010586
0.009032833
0.009057278
0.009083673
0.009112297
0.009144136
0.009181121
0.009226354
0.009284509
0.009362112
0.009451772
0.009398576
0.009309474
0.009230685
0.009170311
0.009122331
0.009082356
0.009047389
0.00901551
0.008985738
0.008957865
0.008932308
0.008909945
0.008891914
0.008879385
0.008873323
0.008874283
0.008882247
0.008896705
0.008916735
0.008941188
0.008968927
0.008999062
0.009031155
0.009065384
0.009102704
0.009145018
0.009195329
0.009258081
0.009339422
0.009431019
0.009381047
0.009290782
0.009209234
0.009144988
0.009092235
0.009046761
0.009005691
0.008967205
0.008930441
0.00889538
0.008862723
0.008833752
0.008810099
0.008793463
0.008785176
0.008786033
0.008796057
0.0088145
0.008840029
0.008870993
0.008905764
0.008943044
0.008982099
0.009022916
0.009066323
0.009114125
0.009169204
0.009235834
0.009319952
0.009412724
0.009365338
0.009274231
0.009190411
0.009122701
0.009065365
0.009014261
0.008966585
0.008920612
0.008875647
0.008831944
0.008790593
0.008753401
0.008722774
0.008700877
0.008689686
0.008690433
0.008703159
0.008726679
0.008759126
0.008798218
0.00884163
0.008887525
0.008934768
0.008983061
0.009033064
0.009086489
0.009146153
0.009216256
0.00930266
0.009396284
0.009351146
0.009259318
0.009173474
0.009102529
0.009040719
0.00898389
0.008929232
0.00887506
0.008820852
0.008767212
0.00871568
0.008668867
0.008629575
0.008601036
0.008586132
0.008586742
0.008602942
0.008632913
0.008673837
0.008722601
0.008776158
0.00883199
0.008888474
0.008944963
0.00900195
0.009061107
0.009125254
0.009198608
0.009287057
0.009381416
0.009338398
0.009245894
0.009158175
0.009084163
0.009018
0.008955447
0.008893622
0.008830825
0.00876669
0.008702081
0.008639635
0.008582381
0.008533499
0.00849742
0.008478264
0.008478759
0.008498996
0.008536332
0.008586676
0.008645647
0.008710262
0.008777056
0.00884349
0.008908619
0.00897279
0.00903769
0.009106213
0.00918266
0.009273014
0.009368077
0.009327171
0.009234041
0.009144594
0.009067721
0.008997429
0.008929346
0.008860462
0.008789012
0.008714751
0.008639172
0.008565618
0.008495754
0.008434907
0.008390806
0.008369712
0.00837006
0.008391952
0.008437162
0.008499372
0.008570854
0.008646471
0.008724303
0.008800935
0.008874757
0.00894602
0.009016483
0.009089171
0.00916852
0.009260653
0.009356405
0.00931761
0.009223993
0.009133022
0.0090536
0.008979587
0.00890645
0.008831016
0.008751408
0.008667485
0.00858172
0.008495499
0.008412014
0.00834743
0.008301555
0.008277052
0.008277274
0.008302353
0.008349033
0.008414872
0.00849999
0.008588082
0.00867635
0.008762639
0.00884468
0.008922542
0.008998104
0.009074561
0.009156521
0.009250261
0.009346677
0.009310273
0.00921611
0.009123865
0.009042342
0.008965244
0.008887876
0.008806894
0.00872036
0.008627934
0.008532651
0.008434513
0.00834733
0.008276953
0.008224578
0.008196272
0.00819638
0.008225067
0.008278092
0.008349466
0.008438288
0.008538289
0.008636072
0.008731016
0.008820046
0.00890352
0.008983366
0.00906297
0.009147139
0.009242266
0.009339307
0.009305111
0.00921065
0.009117515
0.009034494
0.008955183
0.008874759
0.008789733
0.008698063
0.008599159
0.008496384
0.008390373
0.008301436
0.008224602
0.008166821
0.008135377
0.008135389
0.008167061
0.008225383
0.008303133
0.008393413
0.008501506
0.00860673
0.008708307
0.008802566
0.008890133
0.008973086
0.009054969
0.009140702
0.009236802
0.009334305
0.009302553
0.009207901
0.009114301
0.009030502
0.008950038
0.008868014
0.008780856
0.008686381
0.008583967
0.008477021
0.008369183
0.008276931
0.008196381
0.008135517
0.008102223
0.008102176
0.008135609
0.008196961
0.008278396
0.008371943
0.008481846
0.008591199
0.008696422
0.008793519
0.008883254
0.008967838
0.009050907
0.009137454
0.009234069
0.009331838
0.009302698
0.009208053
0.009114457
0.009030662
0.008950202
0.008868181
0.008781028
0.008686558
0.008584153
0.008477209
0.008369359
0.008277108
0.008196565
0.008135708
0.008102421
0.008102375
0.008135804
0.008197149
0.008278577
0.00837212
0.008482026
0.008591379
0.008696602
0.008793702
0.008883443
0.008968033
0.00905111
0.009137664
0.00923429
0.009332078
0.009305528
0.009211094
0.009117977
0.009034969
0.008955669
0.008875255
0.008790242
0.008698589
0.008599705
0.008496937
0.008390898
0.008301959
0.008225138
0.008167375
0.008135945
0.008135961
0.008167623
0.008225929
0.008303662
0.008393933
0.008502036
0.008607262
0.008708842
0.008803113
0.008890706
0.00897368
0.009055587
0.009141343
0.009237474
0.009335033
0.00931093
0.009216824
0.009124612
0.009043111
0.008966033
0.008888684
0.00880772
0.008721217
0.008628823
0.008533557
0.008435425
0.0083482
0.008277826
0.008225469
0.008197178
0.008197288
0.008225963
0.008278967
0.008350325
0.008439156
0.008539156
0.008636939
0.008731894
0.008820961
0.008904479
0.008984364
0.009064021
0.009148229
0.009243376
0.009340519
0.00931858
0.00922497
0.009134024
0.009054632
0.008980649
0.008907543
0.008832141
0.008752568
0.008668691
0.00858296
0.008496746
0.008413276
0.008348641
0.008302762
0.008278266
0.008278485
0.008303551
0.008350218
0.008416066
0.008501181
0.008589265
0.008677525
0.008763822
0.008845902
0.008923811
0.008999415
0.009075929
0.009157933
0.009251724
0.009348234
0.00932832
0.009235208
0.009145795
0.009068967
0.008998723
0.008930688
0.008861851
0.008790452
0.00871624
0.008640727
0.008567206
0.008497368
0.008436529
0.008392338
0.008371233
0.008371568
0.008393447
0.008438691
0.008500882
0.008572345
0.008647941
0.008725756
0.008802392
0.008876234
0.008947525
0.009018015
0.009090733
0.009170116
0.009262294
0.009358116
0.009339652
0.009247179
0.009159512
0.009085565
0.009019472
0.008956991
0.008895236
0.008832508
0.008768443
0.0087039
0.008641518
0.008584308
0.008535442
0.008499355
0.008480183
0.00848065
0.008500853
0.00853816
0.008588472
0.00864741
0.008711993
0.00877877
0.0088452
0.008910337
0.008974519
0.009039432
0.009107972
0.009184442
0.009274832
0.009369947
0.009352434
0.009260646
0.009174873
0.009104019
0.009042309
0.008985583
0.008931025
0.008876948
0.00882283
0.008769272
0.008717812
0.008671057
0.008631796
0.008603263
0.008588345
0.008588923
0.00860508
0.008635008
0.008675887
0.008724609
0.008778134
0.008833945
0.008890419
0.008946904
0.009003891
0.00906305
0.009127205
0.009200573
0.009289047
0.009383448
0.009366579
0.009275522
0.009191796
0.009124208
0.009067008
0.009016045
0.008968509
0.008922666
0.008877819
0.008834219
0.008792951
0.008755832
0.008725244
0.008703357
0.008692153
0.008692868
0.008705551
0.00872902
0.008761416
0.00880046
0.008843835
0.008889703
0.008936925
0.008985203
0.009035194
0.009088614
0.009148278
0.009218387
0.009304806
0.009398467
0.009382164
0.00929196
0.009210529
0.009146439
0.009093866
0.009048579
0.009007695
0.008969383
0.008932774
0.008897844
0.008865292
0.0088364
0.008812794
0.008796176
0.008787878
0.008788704
0.00879868
0.008817068
0.008842541
0.008873454
0.008908179
0.008945421
0.008984443
0.009025232
0.009068618
0.009116406
0.00917148
0.009238115
0.009322251
0.009415056
0.009399502
0.009310471
0.009231825
0.009171645
0.009123889
0.009084153
0.009049423
0.009017767
0.008988193
0.008960487
0.008935061
0.008912792
0.00889482
0.008882314
0.008876245
0.008877173
0.008885087
0.008899485
0.008919453
0.008943846
0.008971529
0.009001612
0.009033658
0.009067848
0.009105136
0.009147429
0.009197732
0.009260488
0.009341848
0.009433478
0.009419217
0.00933211
0.009257201
0.009201645
0.009159018
0.009124674
0.009095499
0.009069529
0.009045742
0.009023828
0.009004008
0.008986875
0.00897322
0.008963856
0.008959472
0.008960478
0.008966859
0.008978256
0.008994038
0.009013412
0.00903559
0.00905997
0.009086308
0.009114881
0.009146681
0.00918364
0.009228861
0.009287017
0.009364638
0.009454331
0.009442357
0.009358777
0.009289309
0.009239472
0.009202342
0.009173131
0.009148785
0.009127464
0.009108222
0.00909074
0.009075133
0.009061811
0.009051331
0.009044271
0.009041126
0.009042209
0.009047503
0.009056745
0.009069493
0.009085188
0.009103274
0.009123334
0.009145227
0.009169242
0.009196286
0.00922817
0.009267928
0.009320374
0.009392524
0.009478648
0.009470759
0.009393908
0.009332646
0.009289894
0.009258488
0.009233915
0.009213504
0.009195721
0.009179796
0.00916547
0.009152821
0.00914215
0.009133871
0.009128409
0.009126138
0.009127305
0.009131892
0.009139699
0.009150406
0.009163602
0.009178878
0.009195921
0.009214625
0.009235214
0.009258413
0.009285716
0.009319772
0.009365108
0.009428976
0.009508273
0.009507434
0.009443721
0.009394366
0.009359826
0.009333881
0.00931308
0.009295503
0.009280075
0.009266267
0.009253919
0.009243113
0.009234098
0.009227202
0.009222759
0.009221067
0.009222329
0.009226528
0.009233508
0.009243021
0.009254748
0.00926836
0.009283597
0.009300344
0.009318721
0.009339202
0.00936281
0.009391422
0.009428487
0.009480295
0.009546253
0.009548607
0.009507756
0.009471526
0.009443728
0.009421344
0.009402516
0.009386175
0.009371671
0.009358678
0.009347109
0.009337061
0.009328757
0.009322484
0.009318532
0.009317149
0.0093185
0.00932258
0.009329271
0.009338362
0.009349576
0.009362624
0.00937727
0.009393381
0.009410994
0.009430376
0.009452106
0.009477191
0.009507446
0.009545904
0.009588608
0.0895477
0.08969057
0.08972373
0.08967611
0.08958615
0.08947451
0.08935199
0.08922497
0.08909825
0.08897655
0.08886497
0.08876895
0.08869388
0.08864454
0.08862454
0.08863579
0.08867841
0.0887506
0.08884884
0.08896838
0.08910379
0.08924945
0.08939992
0.08955
0.08969422
0.08982538
0.08993167
0.08999126
0.08996418
0.08982037
0.08968979
0.0898907
0.08995208
0.08991134
0.08981756
0.08969691
0.08956292
0.08942327
0.08928351
0.08914894
0.08902525
0.08891852
0.08883477
0.08877938
0.08875632
0.08876767
0.08881362
0.08889219
0.08899941
0.08912998
0.08927782
0.08943666
0.08960046
0.08976343
0.08991934
0.09005967
0.0901699
0.09022265
0.09016732
0.08996521
0.08972046
0.08994965
0.09002789
0.08998845
0.08988486
0.08974733
0.08959203
0.08942836
0.08926314
0.08910288
0.0889546
0.08882579
0.0887239
0.08865558
0.08862576
0.08863704
0.08868962
0.08878099
0.08890625
0.08905882
0.08923119
0.08941567
0.08960488
0.08979181
0.08996896
0.09012612
0.09024614
0.09029767
0.09022566
0.08999533
0.08966897
0.08990507
0.08998468
0.08993743
0.08981723
0.08965541
0.08946966
0.08927094
0.08906771
0.08886837
0.08868211
0.08851883
0.08838839
0.08829957
0.08825893
0.08827001
0.08833296
0.08844439
0.08859779
0.08878444
0.08899443
0.08921767
0.08944458
0.08966628
0.0898736
0.09005484
0.09019139
0.09025082
0.09017766
0.08994051
0.08957406
0.08980632
0.08987622
0.08981244
0.08966817
0.08947419
0.08924852
0.08900323
0.08874862
0.08849559
0.08825649
0.08804478
0.08787393
0.08775597
0.08769991
0.08771065
0.08778835
0.08792824
0.08812141
0.0883559
0.08861819
0.08889461
0.08917246
0.0894403
0.0896872
0.08990034
0.09006088
0.09013694
0.09007366
0.08984041
0.08945666
0.08967984
0.08973295
0.08964501
0.08946866
0.08923369
0.08895769
0.08865333
0.0883327
0.08800974
0.08770097
0.08742479
0.08719979
0.0870426
0.08696573
0.08697606
0.08707366
0.08725189
0.08749839
0.08779661
0.0881279
0.08847364
0.08881697
0.08914345
0.08944036
0.0896943
0.08988686
0.08998715
0.08994081
0.08971667
0.0893278
0.08953943
0.08957129
0.08945305
0.08923693
0.08895171
0.0886143
0.08823757
0.08783523
0.08742461
0.08702738
0.0866685
0.08637346
0.08616524
0.08606138
0.08607129
0.08619486
0.08642296
0.08673848
0.08711851
0.08753747
0.08797022
0.08839474
0.08879321
0.0891513
0.08945539
0.08968772
0.0898184
0.0897934
0.08958086
0.08919406
0.08939296
0.08940086
0.0892477
0.0889852
0.08864109
0.08823143
0.08776903
0.08726897
0.08675205
0.08624602
0.08578403
0.08540041
0.08512762
0.08498958
0.08499899
0.08515567
0.08544724
0.08584994
0.08633202
0.08685893
0.0873973
0.08791908
0.08840298
0.08883323
0.08919622
0.08947499
0.08964067
0.08963973
0.08943997
0.0890604
0.08924614
0.08922862
0.08903761
0.08872394
0.08831407
0.08782292
0.08726296
0.08665018
0.08600858
0.08537229
0.08478391
0.08429097
0.0839367
0.08375422
0.08376299
0.08396286
0.08433474
0.08484584
0.08545282
0.08610904
0.08677141
0.08740557
0.08798693
0.0884987
0.08892756
0.08925762
0.08946129
0.08948588
0.08929933
0.08893161
0.08910433
0.08906117
0.08883125
0.08846414
0.08798464
0.08740616
0.08674021
0.08600295
0.08522078
0.08443201
0.08369101
0.08305847
0.08259082
0.08233751
0.08234516
0.08261397
0.08309788
0.08374781
0.08450728
0.08531473
0.08611707
0.08687545
0.08756283
0.08816208
0.08866074
0.08904442
0.08928716
0.08933753
0.08916404
0.08881281
0.08897323
0.08890551
0.0886378
0.08821814
0.08766932
0.0870028
0.08622846
0.08536134
0.08442683
0.08346865
0.08254916
0.08171638
0.08103661
0.08059534
0.08060156
0.08105657
0.08175036
0.08260003
0.0835377
0.08451472
0.08546874
0.08635684
0.08715271
0.08784021
0.08840843
0.0888449
0.08912561
0.08920065
0.08903945
0.08870945
0.08885882
0.08876905
0.08846709
0.08799931
0.08738643
0.08663768
0.08576074
0.08476787
0.08368062
0.08254421
0.08137621
0.08007078
0.07910234
0.07858023
0.07858396
0.07911539
0.08009695
0.08142014
0.0826073
0.08376303
0.08486927
0.08588317
0.08678177
0.08755174
0.0881843
0.08866913
0.08898428
0.08908145
0.08893105
0.0886263
0.08876692
0.0886591
0.08832882
0.087821
0.08715441
0.08633617
0.08537132
0.08426938
0.08304304
0.081707
0.08006737
0.07855091
0.07742152
0.07682085
0.07682248
0.07742877
0.0785689
0.08010244
0.08176442
0.08312049
0.08436629
0.08548904
0.08647567
0.08731537
0.08800191
0.08852702
0.08887061
0.08898583
0.08884403
0.08856853
0.08870281
0.08858213
0.08823161
0.08769502
0.08698971
0.08612111
0.08509216
0.08390911
0.08257008
0.08102339
0.07909681
0.07742038
0.07618278
0.07552577
0.07552584
0.07618568
0.07743195
0.07912487
0.08107702
0.08264434
0.08400307
0.0852067
0.08625748
0.08714777
0.08787326
0.08842733
0.0887913
0.0889194
0.08878365
0.08853924
0.08867032
0.08854297
0.08818189
0.08763026
0.08690464
0.08600959
0.08494699
0.08372
0.08231128
0.08057839
0.07857298
0.07681955
0.07552643
0.07484015
0.07483941
0.07552706
0.07682764
0.07859717
0.08062766
0.08238366
0.08381257
0.08506005
0.08614457
0.0870615
0.0878075
0.08837677
0.08875142
0.08888622
0.08875355
0.0885402
0.0886713
0.088544
0.08818297
0.08763139
0.08690583
0.08601082
0.08494827
0.08372131
0.08231261
0.08057968
0.07857423
0.07682078
0.07552764
0.07484134
0.0748406
0.07552826
0.07682886
0.07859844
0.08062901
0.08238511
0.08381411
0.08506166
0.08614624
0.08706325
0.08780931
0.08837864
0.08875332
0.08888812
0.0887554
0.08857136
0.08870569
0.08858514
0.08823477
0.08769835
0.08699321
0.08612478
0.08509598
0.08391304
0.08257405
0.08102727
0.07910057
0.07742407
0.07618641
0.07552936
0.07552941
0.07618927
0.07743562
0.0791287
0.08108107
0.08264871
0.08400765
0.08521148
0.08626245
0.08715294
0.08787862
0.08843282
0.08879687
0.08892496
0.08878907
0.08863081
0.08877152
0.08866392
0.08833391
0.08782638
0.0871601
0.08634218
0.0853776
0.08427587
0.08304968
0.08171368
0.08007372
0.07855712
0.07742764
0.07682689
0.07682847
0.07743479
0.07857506
0.0801089
0.08177138
0.08312777
0.08437386
0.0854969
0.08648382
0.08732379
0.08801059
0.08853588
0.08887958
0.08899483
0.08885279
0.08871513
0.08886479
0.08877539
0.08847384
0.08800651
0.08739409
0.08664582
0.08576932
0.08477682
0.08368984
0.08255362
0.08138559
0.08007969
0.07911103
0.0785888
0.07859247
0.07912395
0.08010577
0.0814296
0.08261712
0.08377315
0.08487972
0.08589396
0.08679291
0.08756324
0.08819614
0.08868121
0.08899652
0.08909369
0.08894306
0.08881936
0.08898017
0.08891296
0.08864585
0.08822682
0.08767866
0.0870128
0.08623911
0.08537256
0.08443847
0.08348063
0.08256131
0.08172846
0.08104812
0.08060662
0.08061275
0.08106785
0.08176237
0.08261235
0.08355025
0.08452753
0.08548186
0.08637034
0.08716665
0.08785459
0.08842321
0.08885999
0.08914091
0.08921601
0.08905467
0.08893853
0.08911173
0.08906925
0.08884014
0.08847391
0.0879953
0.08741772
0.08675263
0.08601616
0.08523466
0.08444638
0.08370571
0.08307336
0.08260569
0.08235233
0.08235994
0.08262875
0.08311276
0.08376278
0.08452236
0.08532999
0.08613263
0.08689142
0.08757927
0.088179
0.08867809
0.08906211
0.08930507
0.08935554
0.089182
0.08906709
0.08925341
0.08923677
0.08904683
0.08873433
0.08832565
0.08783568
0.08727683
0.08666507
0.08602436
0.0853888
0.08480094
0.08430833
0.08395422
0.08377179
0.08378052
0.08398031
0.08435211
0.08486317
0.08547016
0.08612653
0.0867892
0.08742376
0.08800559
0.08851782
0.08894709
0.08927749
0.08948138
0.0895061
0.08931954
0.08919986
0.08939947
0.08940847
0.08925669
0.08899571
0.08865316
0.08824501
0.08778403
0.08728526
0.08676945
0.08626433
0.08580305
0.08541989
0.08514737
0.08500941
0.08501878
0.08517534
0.08546676
0.08586935
0.08635142
0.08687846
0.0874171
0.08793925
0.08842357
0.08885424
0.08921759
0.08949667
0.08966257
0.08966176
0.08946201
0.08933211
0.08954457
0.08957779
0.08946126
0.08924705
0.08896382
0.08862833
0.08825338
0.08785264
0.08744338
0.08704727
0.08668925
0.08639479
0.0861869
0.08608316
0.08609303
0.08621647
0.0864444
0.0867598
0.0871398
0.08755886
0.08799183
0.08841665
0.08881547
0.0891739
0.0894783
0.08971089
0.08984175
0.08981685
0.08960431
0.08945896
0.08968311
0.08973783
0.08965196
0.08947795
0.08924541
0.08897178
0.08866962
0.08835095
0.08802966
0.08772223
0.08744706
0.08722277
0.08706598
0.08698927
0.08699958
0.08709704
0.0872751
0.08752146
0.08781962
0.08815095
0.08849684
0.08884038
0.0891671
0.08946426
0.08971844
0.08991119
0.09001162
0.08996534
0.08974118
0.08957402
0.08980736
0.08987912
0.08981777
0.08967625
0.08948517
0.08926234
0.0890197
0.08876744
0.08851641
0.08827891
0.08806841
0.08789839
0.08778092
0.08772506
0.0877358
0.08781335
0.08795305
0.08814605
0.08838043
0.08864268
0.08891915
0.08919709
0.08946507
0.08971212
0.08992542
0.09008609
0.09016223
0.09009898
0.08986569
0.08966647
0.08990375
0.08998545
0.08994095
0.08982391
0.0896654
0.08948295
0.0892873
0.08908682
0.08888981
0.08870543
0.08854356
0.08841409
0.08832585
0.08828546
0.08829655
0.08835936
0.08847057
0.08862375
0.08881022
0.08902008
0.08924326
0.08947017
0.0896919
0.08989929
0.0900806
0.09021721
0.09027668
0.09020351
0.08996629
0.08971566
0.08994612
0.09002664
0.08999022
0.08989012
0.08975627
0.08960464
0.08944442
0.08928229
0.08912466
0.08897849
0.08885128
0.0887505
0.08868286
0.08865334
0.08866466
0.08871708
0.08880821
0.0889332
0.08908552
0.08925769
0.08944202
0.08963115
0.08981804
0.08999517
0.09015234
0.09027235
0.09032388
0.09025182
0.0900214
0.08968315
0.08988542
0.08994921
0.08991168
0.08982161
0.0897049
0.08957485
0.08943891
0.08930249
0.08917078
0.0890494
0.08894442
0.0888619
0.08880725
0.08878455
0.08879595
0.08884176
0.08892006
0.08902698
0.08915725
0.08930483
0.08946347
0.08962713
0.08979
0.08994584
0.09008613
0.09019632
0.09024902
0.09019362
0.0899914
0.08953998
0.08968425
0.0897199
0.08967559
0.08958945
0.08948188
0.08936343
0.08924025
0.089117
0.08899827
0.08888911
0.08879493
0.08872115
0.08867262
0.08865302
0.08866433
0.08870681
0.08877874
0.08887666
0.08899588
0.08913101
0.08927644
0.08942675
0.08957671
0.08972082
0.0898519
0.08995813
0.09001764
0.08999047
0.08984655
0.1920268
0.192122
0.1921161
0.1919972
0.1917955
0.1915376
0.1912422
0.1909236
0.1905952
0.1902712
0.1899678
0.189702
0.1894909
0.1893495
0.1892889
0.1893154
0.1894294
0.1896252
0.1898921
0.1902154
0.1905782
0.190963
0.1913528
0.1917321
0.1920858
0.1923976
0.1926459
0.1928016
0.1928317
0.1927466
0.1921173
0.1922756
0.1923121
0.1922052
0.1919931
0.1917106
0.191382
0.191025
0.1906553
0.1902896
0.1899463
0.1896448
0.1894045
0.1892423
0.189171
0.1891976
0.1893225
0.1895392
0.1898356
0.190195
0.1905981
0.191025
0.1914565
0.1918747
0.192262
0.1925984
0.1928571
0.1930004
0.192987
0.1928373
0.1921029
0.1923035
0.1923696
0.1922618
0.1920214
0.1916897
0.1912972
0.1908661
0.1904165
0.1899693
0.1895473
0.1891751
0.1888765
0.1886728
0.1885798
0.1886061
0.1887522
0.1890101
0.1893645
0.1897944
0.190276
0.1907844
0.1912958
0.191788
0.1922392
0.1926246
0.1929113
0.1930546
0.1930106
0.1928172
0.1919726
0.192185
0.1922502
0.1921164
0.1918234
0.1914157
0.1909278
0.1903868
0.1898178
0.1892476
0.1887063
0.1882258
0.1878378
0.18757
0.1874433
0.1874691
0.1876477
0.1879685
0.1884112
0.1889484
0.1895486
0.1901792
0.1908095
0.1914111
0.191957
0.1924179
0.1927565
0.1929252
0.1928812
0.1926753
0.1917573
0.1919592
0.1919959
0.1918096
0.1914376
0.1909253
0.1903092
0.1896204
0.1888898
0.188152
0.1874466
0.1868165
0.1863042
0.1859471
0.1857733
0.1857981
0.1860219
0.18643
0.1869954
0.1876807
0.1884436
0.1892407
0.1900315
0.19078
0.1914533
0.1920181
0.1924349
0.1926556
0.1926394
0.1924437
0.1914842
0.1916614
0.1916489
0.1913866
0.19091
0.1902636
0.189485
0.1886087
0.1876715
0.1867175
0.1857988
0.1849728
0.184297
0.1838221
0.1835861
0.1836096
0.1838929
0.1844164
0.1851429
0.1860221
0.1869966
0.1880084
0.1890046
0.1899396
0.1907745
0.1914725
0.1919934
0.1922896
0.1923224
0.1921513
0.1911729
0.1913167
0.1912401
0.1908825
0.1902778
0.1894691
0.188494
0.1873895
0.186199
0.1849774
0.1837922
0.1827196
0.1818368
0.1812122
0.1808971
0.1809191
0.1812783
0.1819483
0.1828789
0.1840022
0.1852412
0.1865191
0.1877673
0.1889295
0.1899602
0.19082
0.1914685
0.1918597
0.1919564
0.1918187
0.1908379
0.1909431
0.1907925
0.190325
0.1895728
0.1885767
0.1873737
0.1860026
0.1845132
0.1829723
0.1814658
0.1800932
0.1789564
0.1781474
0.1777345
0.1777546
0.1782079
0.1790588
0.1802399
0.1816605
0.1832186
0.1848141
0.1863602
0.1877883
0.1890464
0.1900933
0.1908891
0.1913901
0.191561
0.191462
0.1904931
0.1905568
0.1903263
0.1897395
0.1888261
0.1876239
0.186168
0.1844982
0.1826701
0.1807631
0.1788831
0.1771567
0.175717
0.1746847
0.1741519
0.1741699
0.1747387
0.1758088
0.1772895
0.1790609
0.1809903
0.1829506
0.1848345
0.1865608
0.1880718
0.1893248
0.1902819
0.1909023
0.1911533
0.1910959
0.1901527
0.1901746
0.1898625
0.1891531
0.1880726
0.1866548
0.184932
0.1829436
0.1807497
0.1784413
0.1761442
0.1740138
0.1722162
0.1709099
0.1702244
0.1702398
0.1709563
0.1722959
0.174131
0.1763041
0.1786487
0.1810092
0.1832585
0.1853034
0.1870815
0.1885503
0.189675
0.1904183
0.1907511
0.1907358
0.1898328
0.1898146
0.189424
0.1885957
0.1873517
0.1857215
0.1837331
0.1814245
0.1788579
0.1761328
0.1733922
0.1708122
0.1685809
0.1669142
0.1660154
0.1660278
0.1669523
0.1686477
0.170913
0.1735336
0.1763208
0.1790973
0.181719
0.1840845
0.1861286
0.1878105
0.1890991
0.1899618
0.1903735
0.1903985
0.1895503
0.1894961
0.1890349
0.1880988
0.186706
0.184881
0.1826473
0.1800399
0.177121
0.1739928
0.1708033
0.167713
0.1648988
0.1627259
0.1615861
0.1615945
0.1627538
0.1649532
0.167798
0.170927
0.1741628
0.1773421
0.1803165
0.1829812
0.1852713
0.1871488
0.1885868
0.1895578
0.1900405
0.1901014
0.1893213
0.1892378
0.1887185
0.1876936
0.1861775
0.1841902
0.181751
0.1788914
0.1756711
0.1721868
0.1685651
0.1648926
0.1615273
0.1590571
0.1577539
0.1577586
0.1590745
0.1615666
0.1649642
0.1686737
0.1723416
0.1758775
0.1791536
0.1820712
0.1845676
0.1866081
0.1881701
0.1892305
0.1897714
0.1898616
0.1891605
0.1890562
0.1884957
0.1874073
0.185803
0.1836992
0.1811121
0.1780699
0.1746283
0.1708725
0.1668924
0.1627153
0.1590546
0.156368
0.1549498
0.1549514
0.1563774
0.159082
0.1627734
0.1669898
0.1710161
0.1748245
0.1783224
0.1814232
0.1840682
0.1862258
0.1878768
0.1890009
0.1895834
0.1896944
0.1890785
0.1889635
0.1883815
0.1872602
0.1856098
0.1834453
0.1807808
0.1776427
0.1740834
0.1701774
0.1659867
0.1615717
0.1577506
0.1549503
0.1534719
0.153472
0.1549555
0.1577715
0.1616233
0.1660778
0.1703155
0.1742748
0.1778909
0.1810881
0.1838111
0.1860301
0.1877275
0.188885
0.189489
0.1896108
0.1890809
0.1889659
0.188384
0.1872628
0.1856126
0.1834483
0.1807839
0.1776459
0.1740867
0.1701808
0.1659901
0.1615749
0.1577537
0.1549534
0.1534749
0.1534751
0.1549587
0.1577748
0.1616269
0.1660817
0.1703197
0.1742792
0.1778957
0.1810932
0.1838164
0.1860356
0.1877332
0.1888908
0.1894949
0.1896166
0.1891675
0.1890634
0.1885032
0.1874153
0.1858114
0.1837081
0.1811214
0.1780796
0.1746383
0.1708826
0.1669025
0.1627251
0.1590642
0.1563774
0.1549591
0.1549608
0.1563871
0.1590921
0.1627842
0.1670015
0.1710287
0.1748379
0.1783367
0.1814383
0.184084
0.1862423
0.1878937
0.1890182
0.1896007
0.1897116
0.1893325
0.1892494
0.1887307
0.1877065
0.1861912
0.1842048
0.1817664
0.1789076
0.1756878
0.1722038
0.1685821
0.1649093
0.1615437
0.1590732
0.1577699
0.1577746
0.159091
0.1615838
0.1649825
0.1686934
0.1723626
0.1758998
0.1791772
0.182096
0.1845935
0.1866349
0.1881978
0.1892586
0.1897997
0.1898898
0.1895649
0.1895113
0.189051
0.1881161
0.1867246
0.1849009
0.1826685
0.1800623
0.1771443
0.1740167
0.1708275
0.1677372
0.1649225
0.1627493
0.1616093
0.1616179
0.1627777
0.1649781
0.1678244
0.1709549
0.1741922
0.1773731
0.1803491
0.1830153
0.1853069
0.1871856
0.1886246
0.1895963
0.1900792
0.19014
0.18985
0.1898326
0.1894433
0.1886166
0.1873746
0.1857462
0.1837597
0.1814528
0.1788876
0.1761635
0.1734236
0.1708439
0.1686125
0.1669456
0.1660467
0.1660593
0.1669844
0.1686809
0.1709475
0.1735696
0.1763584
0.1791366
0.1817601
0.1841274
0.1861731
0.1878565
0.1891462
0.1900098
0.1904218
0.1904468
0.1901713
0.1901942
0.189884
0.1891768
0.1880988
0.1866837
0.1849633
0.1829774
0.1807855
0.1784786
0.1761827
0.174053
0.1722558
0.1709496
0.1702642
0.1702799
0.1709969
0.1723373
0.1741736
0.1763481
0.1786942
0.1810565
0.1833076
0.1853543
0.1871342
0.1886046
0.1897305
0.1904746
0.1908079
0.1907927
0.1905116
0.1905768
0.1903486
0.1897648
0.1888547
0.1876559
0.1862034
0.1845368
0.1827115
0.1808067
0.1789284
0.1772033
0.1757643
0.1747324
0.1741998
0.1742181
0.1747874
0.1758581
0.1773398
0.1791124
0.1810433
0.1830052
0.1848909
0.1866191
0.1881317
0.1893863
0.1903447
0.1909659
0.1912174
0.1911601
0.190855
0.1909619
0.1908142
0.1903505
0.1896026
0.188611
0.1874123
0.1860453
0.1845595
0.1830216
0.1815175
0.1801465
0.179011
0.1782027
0.1777901
0.1778106
0.1782642
0.1791156
0.1802974
0.1817191
0.1832784
0.1848755
0.1864232
0.187853
0.1891127
0.190161
0.190958
0.1914597
0.1916311
0.1915322
0.191187
0.1913329
0.1912599
0.190907
0.1903077
0.1895045
0.1885349
0.1874355
0.1862496
0.1850318
0.1838496
0.1827793
0.181898
0.1812744
0.1809599
0.1809822
0.1813417
0.182012
0.1829431
0.1840672
0.1853072
0.1865864
0.1878361
0.1889997
0.1900318
0.1908928
0.1915423
0.1919342
0.1920313
0.1918936
0.1914941
0.1916737
0.1916656
0.1914088
0.1909387
0.1902991
0.1895272
0.1886571
0.1877255
0.1867762
0.1858613
0.1850381
0.1843642
0.1838906
0.1836553
0.1836791
0.1839626
0.1844863
0.1852131
0.1860929
0.1870682
0.188081
0.1890783
0.1900145
0.1908505
0.1915495
0.1920711
0.1923678
0.1924008
0.1922297
0.191762
0.1919667
0.1920085
0.1918287
0.1914643
0.19096
0.1903518
0.1896704
0.1889464
0.1882142
0.1875134
0.1868867
0.1863767
0.1860211
0.1858482
0.1858734
0.1860972
0.1865054
0.1870709
0.1877565
0.1885199
0.1893177
0.1901094
0.1908586
0.1915327
0.1920982
0.1925155
0.1927364
0.1927204
0.1925246
0.1919718
0.1921874
0.1922582
0.1921319
0.1918475
0.1914489
0.1909701
0.1904376
0.1898762
0.1893125
0.1887764
0.1882999
0.1879147
0.1876487
0.1875229
0.1875491
0.1877277
0.1880484
0.1884911
0.1890284
0.1896287
0.1902597
0.1908905
0.1914926
0.192039
0.1925002
0.1928391
0.1930079
0.1929638
0.1927577
0.1920969
0.1923009
0.1923732
0.1922736
0.1920426
0.1917211
0.1913386
0.190917
0.1904759
0.1900359
0.1896199
0.1892521
0.1889567
0.1887549
0.188663
0.1886898
0.1888359
0.1890935
0.1894476
0.1898774
0.1903589
0.1908674
0.191379
0.1918714
0.1923228
0.1927083
0.1929951
0.1931383
0.193094
0.1929004
0.1921072
0.1922691
0.1923121
0.1922139
0.1920119
0.1917402
0.1914224
0.1910755
0.190715
0.1903572
0.1900202
0.1897236
0.1894867
0.1893268
0.1892567
0.1892837
0.1894085
0.1896249
0.1899209
0.1902799
0.1906828
0.1911096
0.1915411
0.1919593
0.1923465
0.1926829
0.1929414