/*--------------------------------*- C++ -*----------------------------------*\
| =========                 |                                                 |
| \\      /  F ield         | OpenFOAM: The Open Source CFD Toolbox           |
|  \\    /   O peration     | Version:  2506                                  |
|   \\  /    A nd           | Website:  www.openfoam.com                      |
|    \\/     M anipulation  |                                                 |
\*---------------------------------------------------------------------------*/
FoamFile
{
    version     2.0;
    format      ascii;
    arch        "LSB;label=32;scalar=64";
    class       volScalarField;
    location    "3500/air";
    object      epsilon;
}
// * * * * * * * * * * * * * * * * * * * * * * * * * * * * * * * * * * * * * //

dimensions      [0 2 -3 0 0 0 0];

internalField   nonuniform List<scalar> 
33752
(
0.03765031
0.03716975
0.03674669
0.03642409
0.03616581
0.03594991
0.03576386
0.03560008
0.0354546
0.03532621
0.03521568
0.03512512
0.03505735
0.03501524
0.03500125
0.03501698
0.03506228
0.0351359
0.03523564
0.03535871
0.03550221
0.03566385
0.03584257
0.03603921
0.03625726
0.03650386
0.03679127
0.03714151
0.03759168
0.03809708
0.0371659
0.0364249
0.03585751
0.0354639
0.03517036
0.03493671
0.03474085
0.03457045
0.03441935
0.03428545
0.03416933
0.03407328
0.03400046
0.03395412
0.03393717
0.03395158
0.03399707
0.034072
0.03417389
0.03429956
0.0344458
0.03461018
0.03479187
0.03499267
0.0352184
0.03548119
0.03580317
0.03622527
0.03682312
0.03759551
0.03673757
0.03585216
0.03515665
0.03467687
0.03432772
0.03405697
0.03383418
0.03364197
0.03347156
0.03331972
0.03318686
0.03307571
0.03299019
0.03293436
0.03291179
0.03292488
0.03297333
0.03305513
0.03316713
0.03330535
0.03346588
0.03364585
0.03384468
0.03406536
0.03431648
0.03461537
0.03499282
0.03550203
0.0362304
0.03715038
0.0364079
0.03545172
0.03467018
0.03411725
0.03371004
0.03339316
0.03313195
0.03290573
0.03270375
0.03252207
0.03236135
0.03222526
0.03211904
0.0320481
0.03201714
0.03202912
0.03208379
0.03217855
0.03230919
0.03247039
0.03265692
0.03286503
0.03309391
0.03334733
0.03363593
0.03398045
0.03441595
0.03499897
0.03581463
0.03680675
0.03614082
0.03514992
0.0343131
0.03370223
0.03323985
0.03287209
0.0325636
0.03229239
0.03204684
0.03182297
0.03162237
0.03145036
0.03131427
0.03122167
0.03117896
0.03118996
0.03125446
0.03136905
0.03152783
0.03172336
0.03194836
0.03219742
0.03246884
0.03276643
0.03310172
0.0334968
0.03398744
0.03462865
0.03550016
0.03652746
0.03591463
0.03490674
0.03403337
0.03337661
0.03286344
0.03244266
0.0320801
0.03175407
0.03145326
0.03117456
0.03092128
0.0307013
0.03052506
0.0304033
0.03034491
0.03035498
0.03043335
0.03057541
0.03077277
0.03101496
0.03129155
0.03159457
0.03192056
0.03227244
0.03266142
0.03310925
0.03365056
0.0343377
0.03524593
0.03629025
0.03571709
0.03470032
0.03380073
0.03310597
0.03254573
0.03207095
0.03164898
0.03125933
0.03089198
0.03054566
0.03022632
0.0299454
0.02971772
0.02955863
0.02948
0.02948891
0.02958562
0.02976358
0.03001094
0.0303129
0.03065473
0.03102481
0.03141694
0.03183213
0.03228024
0.03278185
0.03337009
0.03409518
0.03502963
0.03608268
0.03554086
0.03451853
0.03359802
0.03286982
0.03226493
0.03173552
0.03125
0.03078915
0.03034484
0.0299186
0.02951994
0.02916488
0.02887518
0.02866955
0.02856521
0.02857289
0.02869306
0.02891553
0.02922423
0.02959929
0.03001984
0.03046957
0.03093848
0.03142472
0.03193624
0.03249236
0.03312516
0.03388365
0.03483898
0.03589738
0.03538219
0.03435542
0.03341663
0.03265758
0.03200962
0.03142527
0.03087341
0.03033568
0.02980607
0.02928974
0.02880046
0.02836141
0.02799698
0.0277346
0.02759856
0.02760484
0.02775418
0.02803132
0.0284127
0.0288722
0.02938294
0.02992279
0.03047706
0.03104019
0.03161807
0.03222915
0.03290506
0.03369444
0.03466806
0.03573075
0.03523998
0.03420903
0.03325345
0.03246544
0.03177595
0.03113727
0.03051814
0.02990071
0.02928114
0.02866762
0.0280844
0.02755738
0.02711291
0.02678841
0.02661739
0.02662256
0.02680477
0.02714216
0.0276017
0.02814655
0.02875256
0.02938975
0.03003431
0.0306774
0.03132276
0.03198838
0.032706
0.03352451
0.03451505
0.03558194
0.03511495
0.03408
0.033109
0.03229414
0.03156558
0.03087489
0.03019027
0.02949403
0.02878419
0.02807683
0.02740006
0.02676774
0.0262252
0.02584037
0.02565708
0.02566101
0.02585307
0.02624895
0.02680545
0.02745447
0.02815259
0.02888468
0.0296201
0.03034251
0.0310538
0.03177181
0.03252885
0.03337455
0.03438085
0.03545212
0.03500887
0.03397067
0.03298608
0.03214739
0.03138384
0.03064602
0.02990126
0.02913169
0.02833788
0.02754442
0.02676206
0.02601869
0.02545677
0.02506103
0.02485132
0.02485413
0.02507063
0.02547517
0.02604942
0.02680935
0.0276112
0.02843105
0.02925077
0.03004728
0.03081933
0.03158499
0.03237752
0.03324757
0.03426815
0.03534397
0.03492665
0.03388465
0.03288869
0.03203043
0.03123801
0.03046099
0.02966573
0.02883474
0.02796789
0.02709503
0.02621507
0.0254527
0.02484563
0.02439918
0.02416023
0.02416201
0.02440597
0.02485991
0.02547764
0.02625579
0.02715496
0.02805389
0.02894812
0.02980679
0.03063004
0.0314355
0.03225749
0.03314797
0.03418081
0.0352613
0.03486889
0.03382473
0.03282079
0.03194861
0.03113556
0.03033034
0.02949851
0.02862237
0.02770034
0.02676583
0.02582693
0.02505379
0.02439638
0.02390875
0.02364621
0.02364712
0.02391325
0.0244074
0.0250749
0.02586209
0.02682105
0.02778093
0.02873163
0.02963631
0.03049675
0.03133096
0.0321742
0.03307921
0.03412077
0.03520484
0.0348395
0.03379388
0.03278574
0.0319063
0.0310825
0.03026257
0.02941155
0.02851088
0.02755883
0.02659017
0.02564001
0.02484126
0.02415534
0.02364457
0.02336828
0.02336863
0.02364769
0.02416447
0.02486023
0.0256727
0.02664278
0.02763642
0.02861807
0.02954775
0.03042773
0.03127698
0.0321313
0.0330439
0.03409011
0.03517631
0.03483982
0.03379419
0.03278602
0.03190655
0.0310827
0.03026271
0.02941164
0.02851092
0.02755881
0.02659008
0.02563988
0.02484107
0.0241551
0.02364429
0.02336797
0.02336831
0.02364738
0.0241642
0.02486002
0.02567257
0.02664272
0.02763646
0.02861822
0.02954802
0.0304281
0.03127748
0.03213191
0.03304465
0.034091
0.03517742
0.03486987
0.03382573
0.03282171
0.03194941
0.03113621
0.03033083
0.02949881
0.0286225
0.02770029
0.02676557
0.02582653
0.02505321
0.02439565
0.0239079
0.02364528
0.02364616
0.02391234
0.0244066
0.02507427
0.02586168
0.02682086
0.02778103
0.02873207
0.02963712
0.03049794
0.0313325
0.03217612
0.03308152
0.03412353
0.03520824
0.03492846
0.03388656
0.03289045
0.03203197
0.0312393
0.03046199
0.02966639
0.02883509
0.0279679
0.02709466
0.02621429
0.02545179
0.02484447
0.02439782
0.02415874
0.02416047
0.02440451
0.02485863
0.02547662
0.02625504
0.02715463
0.02805404
0.02894882
0.02980813
0.03063207
0.03143816
0.03226086
0.03315197
0.03418535
0.03526696
0.03501272
0.03397407
0.03298906
0.03214999
0.03138603
0.03064778
0.02990253
0.02913243
0.0283381
0.02754411
0.0267611
0.02601734
0.0254553
0.02505929
0.02484938
0.02485213
0.02506872
0.02547349
0.02604792
0.02680832
0.02761076
0.02843122
0.02925164
0.03004894
0.03082181
0.03158823
0.0323816
0.03325242
0.03427379
0.03535077
0.03512066
0.03408513
0.03311355
0.03229813
0.031569
0.0308777
0.03019242
0.02949547
0.02878487
0.02807685
0.02739933
0.02676637
0.02622332
0.02583839
0.02565485
0.02565869
0.02585085
0.02624672
0.02680366
0.02745328
0.02815207
0.02888489
0.02962106
0.03034425
0.03105632
0.03177509
0.03253289
0.03337934
0.03438641
0.03545858
0.03524793
0.03421629
0.03325996
0.03247121
0.03178095
0.03114146
0.03052147
0.02990313
0.02928262
0.02866812
0.02808406
0.02755626
0.02711108
0.02678605
0.02661468
0.02661972
0.02680203
0.02713974
0.0275998
0.02814532
0.02875209
0.02939006
0.0300354
0.03067925
0.03132538
0.03199175
0.03271011
0.03352934
0.03452057
0.03558813
0.03539285
0.03436525
0.03342552
0.03266551
0.03201655
0.03143115
0.0308782
0.03033933
0.02980858
0.02929109
0.0288007
0.02836068
0.02799541
0.02773237
0.02759591
0.027602
0.02775143
0.02802893
0.02841087
0.02887109
0.02938261
0.02992324
0.03047829
0.03104221
0.03162086
0.0322327
0.03290935
0.0336994
0.03467364
0.03573686
0.03555463
0.0345313
0.03360965
0.03288026
0.03227411
0.03174337
0.0312565
0.03079427
0.03034858
0.02992099
0.02952103
0.02916479
0.02887412
0.02866772
0.02856288
0.02857034
0.02869058
0.02891339
0.02922264
0.02959838
0.03001968
0.03047019
0.03093989
0.03142692
0.03193922
0.03249612
0.03312965
0.03388879
0.03484466
0.0359035
0.03573427
0.03471632
0.03381538
0.03311918
0.0325574
0.032081
0.03165738
0.03126608
0.0308971
0.03054921
0.03022839
0.02994614
0.02971733
0.02955739
0.02947817
0.02948682
0.02958354
0.02976178
0.03000963
0.03031222
0.03065477
0.03102561
0.03141853
0.03183452
0.03228343
0.03278583
0.03337479
0.03410053
0.03503554
0.03608899
0.03593534
0.03492612
0.03405118
0.03339274
0.03287775
0.03245506
0.03209053
0.03176254
0.03145983
0.03117932
0.03092436
0.0307029
0.03052541
0.03040267
0.03034364
0.03035335
0.03043167
0.03057394
0.03077174
0.0310145
0.03129178
0.03159556
0.03192234
0.03227504
0.03266482
0.03311343
0.03365546
0.03434324
0.03525204
0.03629678
0.03616501
0.03517263
0.03433407
0.03372129
0.03325684
0.03288686
0.03257611
0.03230263
0.03205488
0.03182894
0.03162646
0.03145279
0.03131532
0.03122164
0.03117818
0.03118877
0.03125315
0.0313679
0.03152705
0.03172313
0.03194881
0.03219862
0.03247084
0.03276923
0.03310532
0.03350117
0.03399251
0.03463437
0.03550644
0.03653414
0.03643531
0.03547755
0.03469414
0.03413911
0.03372961
0.03341025
0.03314648
0.03291769
0.03271324
0.03252923
0.03236641
0.03222849
0.03212074
0.03204862
0.03201683
0.03202832
0.0320828
0.03217768
0.03230867
0.03247039
0.03265758
0.03286645
0.03309613
0.03335036
0.03363974
0.03398501
0.0344212
0.03500485
0.03582105
0.03681358
0.03676774
0.03588071
0.03518327
0.03470129
0.03434965
0.0340762
0.03385059
0.03365556
0.03348241
0.03332801
0.03319284
0.03307969
0.03299251
0.03293538
0.03291189
0.03292442
0.03297264
0.03305451
0.03316683
0.03330557
0.03346675
0.03364748
0.03384711
0.03406859
0.0343205
0.03462013
0.03499825
0.03550807
0.03623696
0.03715735
0.03719824
0.03645573
0.03588643
0.03549055
0.03519439
0.03495785
0.03475896
0.03458551
0.03443145
0.03429479
0.03417617
0.03407794
0.03400333
0.03395558
0.03393761
0.03395139
0.0339966
0.03407157
0.03417376
0.03429994
0.03444684
0.03461197
0.03479447
0.03499609
0.0352226
0.03548614
0.03580879
0.03623149
0.03682985
0.03760262
0.03768409
0.0372023
0.03677743
0.03645252
0.0361915
0.03597256
0.03578331
0.03561629
0.03546767
0.03533634
0.03522315
0.03513027
0.03506058
0.03501695
0.03500186
0.03501689
0.03506187
0.0351355
0.03523553
0.0353591
0.03550327
0.03566568
0.03584523
0.03604271
0.03626157
0.03650895
0.03679706
0.03714791
0.03759858
0.03810431
0.01322077
0.01315879
0.0130928
0.01303272
0.01297788
0.01292708
0.01287962
0.01283521
0.01279401
0.01275656
0.01272367
0.01269637
0.01267576
0.01266285
0.01265844
0.01266306
0.01267663
0.01269872
0.01272856
0.01276513
0.01280732
0.01285403
0.01290434
0.01295758
0.01301344
0.013072
0.01313379
0.01319981
0.01327057
0.01333571
0.0131584
0.01305334
0.0129559
0.01287774
0.012813
0.01275669
0.0127059
0.01265919
0.01261615
0.01257704
0.0125426
0.01251388
0.01249203
0.01247814
0.0124731
0.01247747
0.01249118
0.01251374
0.0125443
0.01258179
0.01262502
0.01267289
0.01272457
0.01277966
0.01283846
0.01290227
0.01297388
0.01305827
0.0131613
0.01327084
0.01309134
0.01295486
0.01282596
0.01272506
0.01264502
0.01257822
0.01251975
0.01246691
0.01241855
0.01237463
0.0123358
0.01230319
0.01227811
0.01226184
0.01225543
0.01225952
0.01227406
0.01229844
0.01233169
0.01237254
0.01241963
0.01247181
0.01252833
0.01258915
0.01265531
0.01272943
0.01281639
0.01292386
0.01305911
0.01320095
0.01302953
0.01287505
0.01272346
0.01260268
0.01250671
0.01242718
0.01235813
0.01229602
0.01223919
0.01218739
0.0121413
0.01210226
0.01207188
0.01205176
0.01204323
0.01204707
0.01206323
0.01209097
0.01212905
0.01217587
0.01222979
0.01228945
0.01235408
0.01242387
0.01250039
0.01258713
0.01269007
0.0128177
0.01297609
0.01313638
0.01297238
0.01280812
0.01264132
0.01250465
0.01239377
0.01230059
0.0122189
0.01214484
0.01207654
0.01201373
0.01195734
0.01190907
0.01187106
0.01184543
0.01183391
0.01183752
0.01185621
0.01188904
0.01193434
0.01199
0.01205389
0.01212424
0.01220008
0.01228161
0.01237061
0.01247094
0.01258882
0.01273247
0.01290632
0.01307655
0.01291878
0.01274915
0.012572
0.01242267
0.01229817
0.01219098
0.0120951
0.01200672
0.01192405
0.01184708
0.01177715
0.01171662
0.01166838
0.01163533
0.01161981
0.0116232
0.01164545
0.01168529
0.01174044
0.01180804
0.0118852
0.01196949
0.01205951
0.01215521
0.0122583
0.01237257
0.01250407
0.01266043
0.01284473
0.01302037
0.01286811
0.01269533
0.01251066
0.01235086
0.01221378
0.01209242
0.01198112
0.01187631
0.01177652
0.0116822
0.01159539
0.01151936
0.01145807
0.01141549
0.01139482
0.01139795
0.01142488
0.01147386
0.01154172
0.01162456
0.01171838
0.01181986
0.01192688
0.01203891
0.01215735
0.01228574
0.01242979
0.01259664
0.01278847
0.01296725
0.01282018
0.01264529
0.01245467
0.01228574
0.0121368
0.01200118
0.01187347
0.0117504
0.01163097
0.01151629
0.01140932
0.01131451
0.01123731
0.01118294
0.01115586
0.01115871
0.01119153
0.01125184
0.01133533
0.0114367
0.01155053
0.01167229
0.01179889
0.01192913
0.01206393
0.01220655
0.01236244
0.01253841
0.01273619
0.01291703
0.01277521
0.01259868
0.01240296
0.01222573
0.01206544
0.01191553
0.01177076
0.01162807
0.01148697
0.01134939
0.01121946
0.01110313
0.01100725
0.01093898
0.01090437
0.01090689
0.01094667
0.01102041
0.01112218
0.01124494
0.01138164
0.01152627
0.01167455
0.01182441
0.01197628
0.01213318
0.01230042
0.01248469
0.01268756
0.01286999
0.01273377
0.01255581
0.01235553
0.01217061
0.01199947
0.01183552
0.01167349
0.01151051
0.01134654
0.01118445
0.01102999
0.01089038
0.0107745
0.01069191
0.01065013
0.01065233
0.0106987
0.01078635
0.01090773
0.01105338
0.01121463
0.01138382
0.01155503
0.01172524
0.01189441
0.01206539
0.01224351
0.01243549
0.01264295
0.01282679
0.01269672
0.01251748
0.01231307
0.01212112
0.01193986
0.01176253
0.01158375
0.01140072
0.01121389
0.01102734
0.01084779
0.0106837
0.01054982
0.01045934
0.01041993
0.01042181
0.01046519
0.01056022
0.01069941
0.01086927
0.0110554
0.01124917
0.01144337
0.01163374
0.01181975
0.01200419
0.0121925
0.01239157
0.01260319
0.01278837
0.01266509
0.01248474
0.01227674
0.0120786
0.01188833
0.01169893
0.01150483
0.01130321
0.01109498
0.01088539
0.01068132
0.01049959
0.01037428
0.01028697
0.01024261
0.01024427
0.0102922
0.01038352
0.01051353
0.01070113
0.01091146
0.01112841
0.01134414
0.01155326
0.01175472
0.01195134
0.01214876
0.01235411
0.01256944
0.01275586
0.01264019
0.01245884
0.01224789
0.0120447
0.01184702
0.01164761
0.01144067
0.01122334
0.01099671
0.01076725
0.0105453
0.01037225
0.0102397
0.01014513
0.01009563
0.01009709
0.01014979
0.01024806
0.01038496
0.01056353
0.01079169
0.0110285
0.01126284
0.01148784
0.01170229
0.01190904
0.01211397
0.0123245
0.01254292
0.01273048
0.01262282
0.01244081
0.01222778
0.012021
0.01181804
0.01161143
0.01139518
0.01116634
0.0109261
0.0106824
0.01045305
0.01028311
0.01014336
0.01004139
0.009987297
0.009988583
0.01004559
0.01015105
0.01029497
0.01046981
0.01070582
0.01095669
0.01120481
0.01144148
0.01166537
0.01187942
0.01208973
0.01230396
0.01252459
0.012713
0.01261395
0.01243157
0.01221745
0.0120088
0.01180308
0.01159269
0.01137154
0.01113656
0.0108891
0.01063849
0.01041175
0.010237
0.01009226
0.009985784
0.009928936
0.009930117
0.009989712
0.01009957
0.01024842
0.01042795
0.01066135
0.01091904
0.01117449
0.01141739
0.01164626
0.01186415
0.01207728
0.01229343
0.01251523
0.01270411
0.01261408
0.01243169
0.01221756
0.0120089
0.01180316
0.01159275
0.01137158
0.01113658
0.01088909
0.01063845
0.0104117
0.01023693
0.01009216
0.009985673
0.009928817
0.009929995
0.009989595
0.01009947
0.01024833
0.01042788
0.0106613
0.01091902
0.01117449
0.01141743
0.01164632
0.01186423
0.01207739
0.01229358
0.01251541
0.01270432
0.01262323
0.01244121
0.01222814
0.01202132
0.0118183
0.01161162
0.01139531
0.0111664
0.01092608
0.0106823
0.01045289
0.01028288
0.01014307
0.01004106
0.009986944
0.009988222
0.01004524
0.01015074
0.0102947
0.0104696
0.01070567
0.01095662
0.01120482
0.01144158
0.01166555
0.01187969
0.01209008
0.01230439
0.01252511
0.01271363
0.01264095
0.01245958
0.01224857
0.01204529
0.01184751
0.01164799
0.01144092
0.01122347
0.01099671
0.01076711
0.01054503
0.01037189
0.01023925
0.01014461
0.01009507
0.01009651
0.01014923
0.01024754
0.01038452
0.01056316
0.01079144
0.01102837
0.01126285
0.01148799
0.01170259
0.01190948
0.01211454
0.0123252
0.01254376
0.0127315
0.01266639
0.01248594
0.01227783
0.01207955
0.01188913
0.01169956
0.01150529
0.01130348
0.01109505
0.01088527
0.01068099
0.01049912
0.01037371
0.0102863
0.01024187
0.01024351
0.01029146
0.01038283
0.01051291
0.01070063
0.01091111
0.01112823
0.01134414
0.01155344
0.01175509
0.01195187
0.01214946
0.01235497
0.01257048
0.0127571
0.01269861
0.01251924
0.01231467
0.01212253
0.01194106
0.01176351
0.01158449
0.01140121
0.01121411
0.0110273
0.0108475
0.01068319
0.01054913
0.01045856
0.01041907
0.01042091
0.01046431
0.01055935
0.01069864
0.01086866
0.01105498
0.01124895
0.01144335
0.01163392
0.01182012
0.01200475
0.01219323
0.01239248
0.01260428
0.01278961
0.01273636
0.01255825
0.01235774
0.01217259
0.01200118
0.01183694
0.0116746
0.01151129
0.011347
0.01118458
0.01102981
0.01088992
0.01077379
0.01069102
0.01064912
0.01065126
0.01069765
0.01078537
0.01090689
0.01105271
0.01121417
0.01138358
0.011555
0.01172542
0.01189479
0.01206597
0.01224428
0.01243643
0.01264404
0.01282801
0.01277862
0.0126019
0.01240591
0.01222838
0.01206775
0.01191748
0.01177232
0.01162924
0.01148773
0.01134976
0.01121945
0.01110278
0.0110066
0.0109381
0.01090333
0.01090578
0.01094557
0.01101939
0.0111213
0.01124425
0.01138116
0.01152602
0.01167452
0.01182459
0.01197667
0.01213377
0.01230121
0.01248565
0.01268866
0.0128712
0.01282452
0.0126494
0.01245846
0.01228915
0.0121398
0.01200373
0.01187556
0.01175202
0.01163211
0.01151696
0.01140954
0.01131433
0.01123679
0.01118215
0.01115489
0.01115764
0.01119046
0.01125084
0.01133447
0.01143602
0.01155006
0.01167204
0.01179887
0.01192932
0.01206435
0.01220717
0.01236325
0.01253939
0.01273731
0.01291823
0.01287346
0.01270041
0.01251535
0.01235511
0.01221754
0.01209565
0.01198379
0.01187841
0.01177807
0.01168321
0.01159589
0.0115194
0.01145772
0.01141484
0.01139396
0.01139697
0.01142388
0.01147291
0.0115409
0.0116239
0.01171792
0.01181962
0.01192687
0.01203913
0.01215779
0.01228639
0.01243063
0.01259764
0.01278961
0.01296847
0.01292517
0.01275523
0.01257764
0.01242779
0.01230272
0.01219491
0.01209838
0.01200934
0.01192604
0.01184845
0.01177794
0.0117169
0.01166823
0.01163484
0.01161908
0.01162232
0.01164453
0.0116844
0.01173966
0.01180742
0.01188477
0.01196928
0.01205952
0.01215545
0.01225876
0.01237324
0.01250493
0.01266146
0.01284588
0.01302161
0.01297978
0.01281518
0.01264789
0.01251064
0.01239911
0.01230522
0.0122228
0.01214799
0.01207896
0.01201546
0.01195843
0.0119096
0.01187111
0.0118451
0.01183331
0.01183675
0.01185538
0.01188822
0.01193361
0.01198942
0.01205349
0.01212405
0.01220012
0.01228187
0.0123711
0.01247163
0.0125897
0.01273351
0.01290748
0.0130778
0.01303786
0.01288301
0.0127309
0.01260948
0.01251279
0.01243248
0.01236261
0.01229967
0.01224203
0.01218946
0.01214268
0.01210302
0.01207211
0.01205159
0.01204275
0.0120464
0.01206247
0.01209022
0.01212838
0.01217533
0.01222944
0.0122893
0.01235415
0.01242416
0.0125009
0.01258785
0.01269097
0.01281875
0.01297727
0.01313763
0.01310044
0.01296359
0.01283415
0.01273259
0.01265178
0.01258413
0.01252476
0.01247101
0.01242178
0.01237702
0.01233744
0.01230417
0.01227853
0.01226181
0.01225507
0.01225895
0.01227338
0.01229776
0.01233107
0.01237204
0.01241931
0.0124717
0.01252843
0.01258948
0.01265586
0.01273017
0.01281731
0.01292493
0.01306029
0.01320221
0.01316808
0.01306267
0.0129647
0.01288586
0.01282032
0.01276311
0.01271136
0.01266369
0.01261971
0.01257971
0.01254446
0.01251504
0.01249259
0.01247822
0.01247284
0.01247697
0.01249056
0.01251309
0.01254372
0.01258134
0.01262474
0.01267281
0.0127247
0.01278002
0.01283904
0.01290304
0.01297483
0.01305936
0.0131625
0.01327211
0.01323079
0.01316851
0.01310201
0.01304125
0.01298558
0.01293384
0.01288539
0.01283997
0.01279779
0.01275941
0.01272568
0.01269765
0.01267641
0.012663
0.01265823
0.01266259
0.01267604
0.0126981
0.01272799
0.01276468
0.01280704
0.01285395
0.01290448
0.01295795
0.01301403
0.01307279
0.01313476
0.01320092
0.01327179
0.01333698
0.008511194
0.008495439
0.008475086
0.008453575
0.008431888
0.008410443
0.008389521
0.008369415
0.008350485
0.008333168
0.008317966
0.008305415
0.008296042
0.008290319
0.008288609
0.008291118
0.008297822
0.008308509
0.008322812
0.008340247
0.008360255
0.008382257
0.008405691
0.008430048
0.008454882
0.008479807
0.008504441
0.008528273
0.008550246
0.008566875
0.008495249
0.008470684
0.00844167
0.008413953
0.008388238
0.008364218
0.008341592
0.008320278
0.008300415
0.008282325
0.008266455
0.008253329
0.008243482
0.008237405
0.00823548
0.008237926
0.008244718
0.00825563
0.008270278
0.008288158
0.008308703
0.00833135
0.008355596
0.008381054
0.008407508
0.008434963
0.008463642
0.00849379
0.008524645
0.008550345
0.008474399
0.008441182
0.008401714
0.00836528
0.008333107
0.008304416
0.008278331
0.008254322
0.008232239
0.008212238
0.0081947
0.008180139
0.008169127
0.008162202
0.008159795
0.008162155
0.008169256
0.008180844
0.008196486
0.008215629
0.008237676
0.008262073
0.008288394
0.008316423
0.008346251
0.008378347
0.008413537
0.008452557
0.008494121
0.008528712
0.008452056
0.008412653
0.008364485
0.008319738
0.008280591
0.008246261
0.008215566
0.008187663
0.008162173
0.008139127
0.008118866
0.00810194
0.008088999
0.008080683
0.008077511
0.008079783
0.008087474
0.00810028
0.008117681
0.008139024
0.008163637
0.008190933
0.00822053
0.008252347
0.008286716
0.008324435
0.00836665
0.008414114
0.008464566
0.008505493
0.008429218
0.008385816
0.008331219
0.008279514
0.008233798
0.00819354
0.008157515
0.008124746
0.008094745
0.008067497
0.008043375
0.008023036
0.008007286
0.007996938
0.007992663
0.00799485
0.008003476
0.008018151
0.008038207
0.00806282
0.008091159
0.008122537
0.00815654
0.00819314
0.008232786
0.008276419
0.008325236
0.00837974
0.008436736
0.008481739
0.008406336
0.008360396
0.008301169
0.008243853
0.008192222
0.008146056
0.008104232
0.008065785
0.00803023
0.007997603
0.007968402
0.007943479
0.007923905
0.007910772
0.00790499
0.007907092
0.007917057
0.007934364
0.007958106
0.007987179
0.008020491
0.008057156
0.008096635
0.008138852
0.008184254
0.008233776
0.008288521
0.008348679
0.008410361
0.008457931
0.008383732
0.00833613
0.008273495
0.008211608
0.008154671
0.008102718
0.008054767
0.008009942
0.007967847
0.007928657
0.007893087
0.007862302
0.007837763
0.007820977
0.007813215
0.007815223
0.007826994
0.007847801
0.00787638
0.007911212
0.007950813
0.007993977
0.008039944
0.008088497
0.008139992
0.008195283
0.008255332
0.008320075
0.008385185
0.008434421
0.008361739
0.008312975
0.008247705
0.008181974
0.008120206
0.008062595
0.008008277
0.007956474
0.007906929
0.007860023
0.007816782
0.007778801
0.007748082
0.0077267
0.007716436
0.00771834
0.007732417
0.007757654
0.007792293
0.007834237
0.007881455
0.007932301
0.007985693
0.0080412
0.008099043
0.008159976
0.008224846
0.008293433
0.00836118
0.008411567
0.008340754
0.008291108
0.008223685
0.008154606
0.008088372
0.00802524
0.007964402
0.00790516
0.007847399
0.007791758
0.007739659
0.007693249
0.007655209
0.007628382
0.007615176
0.007616961
0.007633761
0.007664265
0.007706093
0.007756398
0.007812446
0.007872024
0.007933634
0.00799658
0.008060938
0.008127385
0.008196715
0.008268644
0.008338541
0.008389795
0.008321247
0.008270884
0.008201624
0.008129567
0.008059187
0.007990721
0.007923354
0.007856421
0.007789938
0.007724833
0.007663021
0.007607323
0.007561382
0.007528912
0.00751282
0.007514476
0.007533928
0.007569895
0.007619492
0.007678997
0.007744749
0.007813815
0.007884177
0.007954837
0.008025738
0.008097526
0.008171003
0.00824591
0.008317641
0.008369603
0.008303746
0.008252778
0.008181931
0.008107228
0.008033053
0.007959563
0.007885877
0.007811317
0.007736012
0.007661219
0.007589385
0.007524381
0.007471551
0.007435138
0.007417634
0.007419154
0.007439774
0.007479481
0.007535857
0.007604602
0.007680351
0.007759147
0.007838386
0.007916721
0.007993973
0.008070805
0.008148089
0.008225652
0.008298978
0.008351548
0.008288817
0.008237343
0.008165149
0.008088162
0.008010648
0.007932643
0.007853159
0.007771467
0.007687794
0.007603774
0.00752265
0.007450808
0.007396442
0.007360972
0.007342987
0.007344387
0.007365264
0.007403809
0.007461584
0.007537147
0.007622158
0.007710231
0.007797906
0.007883435
0.007966532
0.008047911
0.008128558
0.008208423
0.008283119
0.008336214
0.008277033
0.008225147
0.008151872
0.008073042
0.007992797
0.007911042
0.007826671
0.007738881
0.007647978
0.007556128
0.007468173
0.007394829
0.007340307
0.007301602
0.007281693
0.007282988
0.007305607
0.007347269
0.007405004
0.007482016
0.007573866
0.007669805
0.007764784
0.007856479
0.007944515
0.00802968
0.008113085
0.008194821
0.008270626
0.008324158
0.008268861
0.00821669
0.008142654
0.008062518
0.007980322
0.007895862
0.007807922
0.007715634
0.007619389
0.007521977
0.007430199
0.007357811
0.007300108
0.007258414
0.007236636
0.007237847
0.007262194
0.007306748
0.007367636
0.007443529
0.007539252
0.007640763
0.007741139
0.007837389
0.007929037
0.008016939
0.008102321
0.008185386
0.00826198
0.008315829
0.008264696
0.008212373
0.00813794
0.008057121
0.007973901
0.007888013
0.007798178
0.007703487
0.007604411
0.007504219
0.007411137
0.007338347
0.007278793
0.007235273
0.007212357
0.007213519
0.007238923
0.007285244
0.007347969
0.007424204
0.00752124
0.007625529
0.007728767
0.00782745
0.007921016
0.008010362
0.008096781
0.008180543
0.008257553
0.008311571
0.008264766
0.008212439
0.008137998
0.008057169
0.007973936
0.007888034
0.007798184
0.007703477
0.007604385
0.007504176
0.007411078
0.007338274
0.007278709
0.007235179
0.007212257
0.007213417
0.007238822
0.007285148
0.00734788
0.007424123
0.007521169
0.007625469
0.007728719
0.007827414
0.007920991
0.008010347
0.008096776
0.008180549
0.008257569
0.008311595
0.008269082
0.008216899
0.00814284
0.008062672
0.007980438
0.007895934
0.007807948
0.00771561
0.007619316
0.007521853
0.007430028
0.007357597
0.007299858
0.007258136
0.00723634
0.007237544
0.007261894
0.007306462
0.00736737
0.007443289
0.007539041
0.007640585
0.007740996
0.00783728
0.007928961
0.008016893
0.008102305
0.0081854
0.008262025
0.008315899
0.008277438
0.008225531
0.008152215
0.008073329
0.007993019
0.00791119
0.007826739
0.007738864
0.007647875
0.007555938
0.007467901
0.007394488
0.007339905
0.007301153
0.007281212
0.007282495
0.007305118
0.0073468
0.007404566
0.007481616
0.007573516
0.00766951
0.007764544
0.007856294
0.007944384
0.008029598
0.008113052
0.008194834
0.008270686
0.00832426
0.008289468
0.008237955
0.008165697
0.008088627
0.008011017
0.007932903
0.007853303
0.007771488
0.00768769
0.007603547
0.007522303
0.007450358
0.007395908
0.007360372
0.007342341
0.007343721
0.007364601
0.007403168
0.007460979
0.007536596
0.007621675
0.00770982
0.007797569
0.007883171
0.007966337
0.008047782
0.00812849
0.008208414
0.008283165
0.008336307
0.008304697
0.008253675
0.008182739
0.008107923
0.008033617
0.007959982
0.00788614
0.007811415
0.007735945
0.007660988
0.007588998
0.007523855
0.007470908
0.00743441
0.007416845
0.007418334
0.007438951
0.007478678
0.007535102
0.007603916
0.007679746
0.007758628
0.007837955
0.007916374
0.007993708
0.008070615
0.00814797
0.008225597
0.008298981
0.008351593
0.00832256
0.008272128
0.008202753
0.008130551
0.008060001
0.007991348
0.007923782
0.007856641
0.007789948
0.007724637
0.007662631
0.007606757
0.007560667
0.007528081
0.007511909
0.007513521
0.007532966
0.007568959
0.007618611
0.007678194
0.007744037
0.007813199
0.007883658
0.007954412
0.008025403
0.008097273
0.008170827
0.008245801
0.008317587
0.008369586
0.008342495
0.008292764
0.008225197
0.008155935
0.00808949
0.008026125
0.00796504
0.007905543
0.007847525
0.007791634
0.0077393
0.007692679
0.007654458
0.007627489
0.007614183
0.007615912
0.007632699
0.007663228
0.007705113
0.0077555
0.007811644
0.007871323
0.007933037
0.007996083
0.008060537
0.008127073
0.008196483
0.008268481
0.008338431
0.008389717
0.008363966
0.008315098
0.008249655
0.008183701
0.008121675
0.008063782
0.008009164
0.007957056
0.007907206
0.007860005
0.007816489
0.00777826
0.007747331
0.007725782
0.007715398
0.007717232
0.007731287
0.007756545
0.007791239
0.007833264
0.007880578
0.007931528
0.007985027
0.008040639
0.008098584
0.00815961
0.008224564
0.00829322
0.008361019
0.008411435
0.008386487
0.008338763
0.008275923
0.008213772
0.008156528
0.008104239
0.008055935
0.00801075
0.007968299
0.007928769
0.007892882
0.007861815
0.007837036
0.00782006
0.00781216
0.007814085
0.007825823
0.007846642
0.007875271
0.00791018
0.007949875
0.007993144
0.008039221
0.008087882
0.008139482
0.008194871
0.008255005
0.00831982
0.008384981
0.008434245
0.00840964
0.008363559
0.008304096
0.008246474
0.008194487
0.008147932
0.008105698
0.008066836
0.008030874
0.007997859
0.0079683
0.007943062
0.007923219
0.007909872
0.007903935
0.007905939
0.007915861
0.007933172
0.007956956
0.007986101
0.008019506
0.008056275
0.008095865
0.008138193
0.008183702
0.008233324
0.008288157
0.008348388
0.008410121
0.00845772
0.00843306
0.008389501
0.008334639
0.00828259
0.008236472
0.008195771
0.008159281
0.008126044
0.008095584
0.008067902
0.008043385
0.008022695
0.00800665
0.007996067
0.007991619
0.007993694
0.008002265
0.008016936
0.008037028
0.008061709
0.008090138
0.00812162
0.008155734
0.008192448
0.008232203
0.008275937
0.008324843
0.008379421
0.008436469
0.0084815
0.008456393
0.008416821
0.008368364
0.00832324
0.008283649
0.008248829
0.00821762
0.008189198
0.008163202
0.008139679
0.008118984
0.008101677
0.008088416
0.008079844
0.008076482
0.00807863
0.008086257