/*--------------------------------*- C++ -*----------------------------------*\
| =========                 |                                                 |
| \\      /  F ield         | OpenFOAM: The Open Source CFD Toolbox           |
|  \\    /   O peration     | Version:  2506                                  |
|   \\  /    A nd           | Website:  www.openfoam.com                      |
|    \\/     M anipulation  |                                                 |
\*---------------------------------------------------------------------------*/
FoamFile
{
    version     2.0;
    format      ascii;
    arch        "LSB;label=32;scalar=64";
    class       volScalarField;
    location    "3500/air";
    object      k;
}
// * * * * * * * * * * * * * * * * * * * * * * * * * * * * * * * * * * * * * //

dimensions      [0 2 -2 0 0 0 0];

internalField   nonuniform List<scalar> 
33752
(
0.05873085
0.05822952
0.05778607
0.05744643
0.05717342
0.05694436
0.0567463
0.05657136
0.05641553
0.05627764
0.05615866
0.05606097
0.05598771
0.05594206
0.0559267
0.05594341
0.055992
0.05607106
0.05617816
0.05631017
0.05646388
0.05663668
0.05682729
0.05703644
0.05726763
0.05752822
0.05783078
0.05819799
0.05866782
0.05919275
0.0582256
0.05744849
0.05684951
0.05643171
0.0561187
0.05586851
0.05565798
0.05547417
0.05531067
0.05516538
0.05503909
0.0549344
0.05485488
0.05480415
0.05478542
0.05480089
0.05485023
0.05493161
0.05504224
0.05517854
0.05533689
0.05551451
0.05571035
0.05592615
0.05616791
0.05644828
0.05679037
0.05723669
0.05786529
0.05867194
0.0577768
0.05684404
0.05610557
0.05559285
0.05521774
0.0549255
0.05468399
0.05447483
0.05428876
0.05412247
0.0539766
0.0538543
0.05376002
0.05369833
0.05367325
0.05368745
0.05374059
0.0538304
0.0539533
0.05410479
0.05428039
0.05447681
0.0546932
0.05493258
0.05520393
0.05552551
0.05592966
0.05647192
0.05724235
0.05820766
0.05743
0.05641928
0.055586
0.05499215
0.05455222
0.05420808
0.05392305
0.05367515
0.05345298
0.05325249
0.05307464
0.05292369
0.05280562
0.05272662
0.052692
0.0527051
0.05276565
0.05287068
0.05301535
0.05319358
0.05339939
0.05362839
0.05387945
0.05415639
0.05447042
0.05484349
0.05531254
0.05593659
0.05680311
0.05784777
0.05714811
0.05609787
0.05520279
0.05454421
0.05404245
0.05364106
0.05330261
0.05300364
0.05273183
0.05248313
0.05225957
0.05206737
0.05191495
0.05181103
0.05176294
0.05177508
0.05184717
0.05197528
0.05215258
0.05237051
0.05262065
0.05289668
0.0531964
0.05352363
0.05389056
0.0543206
0.05485147
0.05554056
0.05646951
0.05755424
0.05690872
0.05583805
0.05490141
0.05419114
0.05363221
0.05317099
0.0527713
0.05241001
0.05207509
0.05176352
0.05147932
0.05123172
0.05103282
0.05089509
0.05082887
0.05084005
0.05092845
0.05108864
0.05131086
0.05158286
0.05189256
0.05223062
0.05259279
0.05298187
0.05340967
0.05389929
0.05448723
0.05522808
0.05619883
0.05730416
0.05669917
0.05561689
0.05464995
0.05389653
0.05328434
0.05276195
0.05229473
0.05186077
0.05144949
0.05105989
0.05069908
0.0503805
0.05012146
0.04993996
0.04985001
0.04985999
0.04997012
0.05017264
0.05045352
0.05079533
0.05118081
0.05159635
0.0520345
0.05249594
0.05299101
0.05354159
0.05418267
0.05496666
0.0559678
0.0570847
0.05651184
0.05542169
0.05443023
0.0536386
0.05297564
0.05239107
0.05185125
0.05133553
0.05083533
0.05035275
0.04989907
0.04949316
0.04916061
0.0489238
0.04880332
0.04881198
0.04895028
0.04920596
0.0495597
0.04998776
0.05046552
0.05097376
0.05150068
0.05204373
0.05261126
0.0532239
0.05391567
0.05473788
0.05576359
0.0568883
0.05634291
0.05524623
0.05423316
0.05340611
0.05269397
0.05204658
0.05143054
0.05082597
0.05022643
0.04963804
0.04907699
0.04857064
0.04814821
0.04784285
0.04768405
0.04769117
0.04786503
0.04818706
0.04862848
0.04915758
0.04974231
0.05035643
0.05098275
0.05161467
0.05225842
0.05293391
0.05367493
0.05453264
0.05558006
0.05671128
0.05619133
0.05508851
0.05405554
0.05319512
0.05243538
0.05172558
0.05103184
0.05033451
0.04962928
0.04892549
0.04825138
0.04763804
0.04711768
0.04673586
0.04653395
0.04653983
0.04675447
0.04715092
0.04768826
0.04832155
0.04902095
0.04975062
0.05048299
0.05120793
0.05192961
0.05266773
0.05345656
0.05434787
0.05541541
0.05655289
0.05605794
0.05494936
0.05389809
0.05300665
0.05220197
0.05143217
0.05066238
0.04987268
0.04906051
0.04824359
0.04745549
0.04671324
0.0460717
0.04561282
0.04539366
0.04539809
0.04562716
0.04609872
0.04675609
0.04751711
0.04832903
0.04917299
0.05001304
0.05083089
0.05162908
0.05242761
0.05326176
0.05418448
0.05527075
0.05641452
0.05594472
0.05483139
0.05376397
0.05284496
0.05199993
0.05117555
0.05033556
0.04945937
0.04854662
0.047625
0.04670758
0.04582768
0.04515595
0.04468042
0.04442744
0.04443056
0.04469114
0.04517661
0.04586253
0.04676119
0.04770037
0.04865122
0.04959213
0.05049732
0.05136634
0.05222001
0.05309505
0.05404594
0.05514914
0.05629911
0.05585699
0.05473856
0.05365768
0.05271599
0.05183759
0.05096767
0.05006849
0.04911938
0.04811862
0.0470998
0.04606172
0.04515207
0.04442208
0.04388181
0.04359127
0.04359317
0.04388923
0.04443792
0.04517996
0.04610781
0.04716744
0.04821525
0.04924589
0.0502248
0.05115378
0.05205362
0.05296267
0.05393718
0.05505484
0.05621087
0.05579546
0.054674
0.05358366
0.05262581
0.05172351
0.05082076
0.04987857
0.04887562
0.04780807
0.04671332
0.04559979
0.04467365
0.04387936
0.04328592
0.04296473
0.04296559
0.04329062
0.04389136
0.04469703
0.04563908
0.04677556
0.04789862
0.04899761
0.05003134
0.05100396
0.05193721
0.05287082
0.05386214
0.05499008
0.05615068
0.05576431
0.05464094
0.05354561
0.05257936
0.0516646
0.05074468
0.04977988
0.04874762
0.04764371
0.04650675
0.04537713
0.04441813
0.04358716
0.04296361
0.04262445
0.04262465
0.04296669
0.04359694
0.04443902
0.04541353
0.04656597
0.0477308
0.04886733
0.04993086
0.05092649
0.05187726
0.05282368
0.05382378
0.05495718
0.05612045
0.05576501
0.05464165
0.0535463
0.05258003
0.05166524
0.05074527
0.04978044
0.04874814
0.04764421
0.04650718
0.04537749
0.04441843
0.04358742
0.04296386
0.04262468
0.04262488
0.04296692
0.04359719
0.04443932
0.04541389
0.04656641
0.04773133
0.04886796
0.0499316
0.05092734
0.05187822
0.05282475
0.05382498
0.05495854
0.05612202
0.05579751
0.05467614
0.05358577
0.05262785
0.05172546
0.05082259
0.04988028
0.04887721
0.04780955
0.04671461
0.04560086
0.04467454
0.04388013
0.04328661
0.04296539
0.04296623
0.04329129
0.04389209
0.04469789
0.04564014
0.04677685
0.04790019
0.04899947
0.05003355
0.05100655
0.05194016
0.05287413
0.05386583
0.05499422
0.05615549
0.05586047
0.05474224
0.05366132
0.05271951
0.05184094
0.05097082
0.0500714
0.04912209
0.04812111
0.04710199
0.04606354
0.04515362
0.0444234
0.04388296
0.04359234
0.0435942
0.0438903
0.04443912
0.04518138
0.04610951
0.04716954
0.04821779
0.04924894
0.05022848
0.05115814
0.05205859
0.05296834
0.05394346
0.05506165
0.05621883
0.05595069
0.05483703
0.05376935
0.0528501
0.05200482
0.05118015
0.05033984
0.04946327
0.0485502
0.04762819
0.04671019
0.04582994
0.04515792
0.04468212
0.04442897
0.04443202
0.04469265
0.04517832
0.04586446
0.04676356
0.04770326
0.04865465
0.04959618
0.05050214
0.05137196
0.05222636
0.05310222
0.05405385
0.05515784
0.05630901
0.05606594
0.05495696
0.05390533
0.05301356
0.05220855
0.05143838
0.05066816
0.04987799
0.04906528
0.04824795
0.04745927
0.04671649
0.04607448
0.04561524
0.04539582
0.04540012
0.04562925
0.04610094
0.04675867
0.04752021
0.04833269
0.04917726
0.05001798
0.05083655
0.05163547
0.0524347
0.05326957
0.05419299
0.05528003
0.05642471
0.05620143
0.05509819
0.05406478
0.05320395
0.05244378
0.05173352
0.05103926
0.05034134
0.04963549
0.04893103
0.04825635
0.04764242
0.04712146
0.04673912
0.04653685
0.04654253
0.04675718
0.04715386
0.0476916
0.04832542
0.04902541
0.04975573
0.05048877
0.0512144
0.05193676
0.05267555
0.05346505
0.05435702
0.05542523
0.05656341
0.05635528
0.05525809
0.05424451
0.05341696
0.0527043
0.05205635
0.0514397
0.05083444
0.05023417
0.04964502
0.04908319
0.04857616
0.04815305
0.04784712
0.04768789
0.04769477
0.04786861
0.04819084
0.04863266
0.04916228
0.04974762
0.05036238
0.05098935
0.05162194
0.05226635
0.05294249
0.05368415
0.05454247
0.05559048
0.05672226
0.05652653
0.05543581
0.05444375
0.05365154
0.05298797
0.05240274
0.0518622
0.05134571
0.05084468
0.05036124
0.04990668
0.04949996
0.04916667
0.04892921
0.04880825
0.04881663
0.04895489
0.04921073
0.04956483
0.04999335
0.05047168
0.05098052
0.05150806
0.05205175
0.05261991
0.0532332
0.05392558
0.05474836
0.05577458
0.05689976
0.05671617
0.05563324
0.05466564
0.05391156
0.05329866
0.05277551
0.05230748
0.05187267
0.05146047
0.05106992
0.05070817
0.05038867
0.05012879
0.04994662
0.04985614
0.04986579
0.04997582
0.05017844
0.05045959
0.0508018
0.05118778
0.05160387
0.0520426
0.05250464
0.05300033
0.05355153
0.05419321
0.05497776
0.05597943
0.05709677
0.05692793
0.05585653
0.05491916
0.05420817
0.05364846
0.05318641
0.05278581
0.05242356
0.05208764
0.05177504
0.05148982
0.05124124
0.05104144
0.05090296
0.05083617
0.05084696
0.05093518
0.0510954
0.05131781
0.05159015
0.05190028
0.05223883
0.05260154
0.05299119
0.05341958
0.05390979
0.05449831
0.05523972
0.056211
0.05731678
0.0571693
0.05611829
0.05522244
0.05456309
0.0540605
0.0536582
0.05331875
0.05301874
0.05274584
0.05249602
0.05227137
0.05207812
0.05192476
0.05182002
0.0517713
0.051783
0.05185485
0.05198292
0.05216034
0.05237853
0.05262904
0.05290552
0.05320574
0.05353351
0.05390099
0.05433159
0.05486301
0.05555264
0.05648211
0.05756729
0.05745286
0.05644136
0.05560731
0.05501269
0.05457188
0.05422677
0.05394068
0.05369164
0.05346829
0.05326661
0.05308759
0.05293554
0.05281647
0.0527366
0.05270129
0.05271391
0.05277415
0.05287907
0.0530238
0.05320225
0.05340837
0.05363779
0.05388932
0.05416676
0.05448131
0.05485491
0.05532448
0.05594905
0.05681607
0.05786118
0.05780098
0.05686746
0.05612827
0.05561479
0.0552388
0.05494555
0.05470291
0.05449253
0.0543052
0.05413764
0.05399053
0.05386707
0.05377173
0.05370912
0.05368331
0.05369696
0.05374975
0.0538394
0.05396232
0.05411398
0.05428987
0.05448668
0.05470352
0.05494338
0.05521524
0.05553733
0.05594197
0.05648471
0.05725562
0.05822135
0.05825071
0.05747297
0.05687338
0.05645486
0.05614096
0.05588972
0.055678
0.0554929
0.05532806
0.05518143
0.05505382
0.0549479
0.05486726
0.05481556
0.05479605
0.05481092
0.05485987
0.05494105
0.05505167
0.05518812
0.05534675
0.05552475
0.05572103
0.05593731
0.05617957
0.05646045
0.05680302
0.05724981
0.05787885
0.05868589
0.0587566
0.05825488
0.05781093
0.0574706
0.05719668
0.05696652
0.05676719
0.05659088
0.05643362
0.0562943
0.05617393
0.05607493
0.05600049
0.05595381
0.05593762
0.05595369
0.05600185
0.0560807
0.05618778
0.05631994
0.05647392
0.05664711
0.05683819
0.05704784
0.05727956
0.05754067
0.05784375
0.05821143
0.05868167
0.05920689
0.106575
0.1064097
0.1061623
0.1058905
0.1056146
0.1053421
0.1050767
0.1048209
0.1045784
0.104354
0.1041541
0.1039862
0.1038579
0.1037762
0.1037464
0.1037719
0.1038525
0.1039852
0.1041648
0.1043844
0.1046361
0.1049123
0.1052058
0.1055109
0.1058231
0.1061383
0.1064516
0.1067541
0.1070236
0.1072001
0.1064077
0.1061008
0.1057402
0.105397
0.1050771
0.1047756
0.1044889
0.1042154
0.1039569
0.1037175
0.1035037
0.1033232
0.1031844
0.103095
0.1030608
0.1030854
0.1031687
0.1033074
0.1034958
0.1037262
0.1039903
0.1042798
0.1045877
0.104909
0.1052412
0.1055845
0.1059418
0.1063167
0.1067024
0.1070253
0.1061545
0.1057345
0.1052531
0.1048154
0.1044253
0.1040695
0.1037376
0.103424
0.103128
0.1028532
0.1026063
0.1023965
0.1022335
0.1021264
0.1020826
0.1021061
0.1021969
0.102351
0.1025615
0.1028192
0.1031142
0.1034372
0.1037807
0.1041407
0.1045168
0.1049137
0.1053414
0.1058122
0.1063219
0.1067611
0.1058733
0.1053824
0.1048066
0.1042807
0.1038137
0.10339
0.1029956
0.1026225
0.1022686
0.1019378
0.1016384
0.1013815
0.1011796
0.1010446
0.1009856
0.101008
0.1011117
0.1012917
0.1015389
0.1018417
0.1021874
0.1025646
0.1029645
0.1033826
0.1038201
0.1042846
0.1047893
0.1053495
0.1059553
0.1064674
0.1055851
0.1050505
0.104405
0.1038023
0.1032582
0.1027582
0.1022874
0.1018368
0.1014049
0.1009968
0.1006234
0.1002997
0.1000424
0.09986732
0.09978689
0.09980823
0.0999312
0.1001491
0.1004497
0.1008174
0.1012354
0.1016885
0.1021651
0.1026596
0.1031728
0.1037132
0.1042951
0.1049326
0.1056093
0.1061657
0.1052978
0.1047347
0.1040354
0.1033652
0.1027449
0.1021619
0.1016021
0.1010571
0.1005265
0.1000184
0.09954783
0.09913538
0.09880384
0.09857492
0.09846572
0.0984859
0.09863538
0.09890493
0.09927787
0.09973266
0.1002464
0.1007982
0.1013724
0.1019605
0.1025622
0.1031851
0.1038431
0.1045485
0.1052794
0.1058645
0.1050155
0.1044317
0.1036879
0.1029558
0.1022593
0.1015874
0.1009271
0.100271
0.09962123
0.09898953
0.09839695
0.09787155
0.09744469
0.09714628
0.09699986
0.09701876
0.09720296
0.09753977
0.09800608
0.09857219
0.09920665
0.09988104
0.1005738
0.1012723
0.101974
0.1026855
0.1034196
0.104187
0.1049626
0.1055685
0.1047414
0.1041405
0.1033573
0.1025662
0.1017928
0.1010268
0.1002556
0.09947321
0.09868433
0.09790561
0.09716544
0.09650162
0.09595672
0.09557143
0.09537829
0.09539573
0.09562388
0.09604507
0.09662746
0.09733046
0.09811143
0.09893212
0.09976343
0.1005879
0.1014003
0.1022059
0.1030168
0.1038432
0.1046583
0.1052811
0.1044793
0.1038632
0.1030433
0.1021951
0.1013442
0.10048
0.09958987
0.09866863
0.0977235
0.09677652
0.09586467
0.09503744
0.0943509
0.09386013
0.0936097
0.09362541
0.09390779
0.09443181
0.09515367
0.0960187
0.09697049
0.09795901
0.0989464
0.09990974
0.100841
0.1017448
0.1026333
0.1035169
0.1043688
0.1050067
0.1042344
0.1036041
0.1027497
0.1018464
0.1009189
0.09995531
0.09894216
0.09787433
0.0967612
0.09563007
0.09452723
0.09351432
0.09266352
0.09204763
0.09172672
0.09174045
0.09208977
0.09273647
0.09362054
0.09466958
0.09581178
0.09698432
0.09813987
0.09925006
0.1003046
0.1013081
0.1022734
0.1032123
0.1040988
0.104751
0.1040133
0.1033698
0.1024835
0.1015285
0.1005279
0.09946806
0.09833366
0.09711895
0.09583472
0.09451295
0.09320725
0.09198906
0.09094889
0.09018082
0.08976545
0.08977704
0.09021714
0.09101264
0.09208502
0.09333809
0.09468238
0.09604571
0.09737283
0.09863046
0.09980682
0.100907
0.1019458
0.1029367
0.1038555
0.104521
0.1038233
0.1031683
0.1022537
0.1012528
0.1001864
0.09903877
0.09779242
0.09644029
0.09499355
0.09348707
0.09197604
0.09054318
0.08927676
0.08836125
0.08787917
0.0878884
0.08839102
0.08933109
0.09062773
0.09209649
0.09364503
0.09519343
0.09668368
0.09807948
0.09936848
0.1005571
0.1016622
0.1026996
0.1036471
0.1043245
0.1036726
0.1030079
0.1020703
0.1010316
0.09991096
0.09869016
0.09734966
0.09588071
0.09429365
0.09262375
0.09092419
0.08926608
0.08785028
0.08681304
0.08626453
0.08627167
0.08683705
0.08789621
0.08934037
0.09103471
0.09277204
0.09448411
0.09611546
0.09762889
0.0990128
0.1002752
0.1014352
0.1025109
0.1034821
0.1041697
0.1035677
0.1028963
0.1019423
0.1008767
0.09971715
0.0984437
0.09703496
0.09548058
0.09378946
0.09199515
0.09014633
0.08834156
0.08680481
0.08567456
0.08507441
0.08507993
0.08569412
0.08684423
0.0884082
0.09024844
0.09213733
0.09397323
0.09570922
0.0973088
0.0987616
0.1000772
0.1012766
0.1023797
0.1033678
0.1040627
0.1035142
0.1028393
0.1018767
0.1007971
0.09961724
0.09831619
0.09687154
0.09527186
0.09352501
0.09166195
0.08972079
0.08785108
0.08624938
0.08506833
0.08443973
0.08444434
0.08508543
0.08628519
0.08791357
0.08981801
0.09180074
0.09370526
0.09549739
0.09714271
0.09863184
0.0999754
0.1011955
0.1023129
0.1033099
0.1040086
0.1035153
0.1028404
0.1018778
0.1007981
0.09961823
0.09831712
0.09687239
0.09527263
0.0935257
0.09166254
0.08972126
0.08785144
0.08624966
0.08506854
0.08443989
0.08444449
0.0850856
0.08628542
0.08791389
0.08981846
0.09180133
0.09370601
0.0954983
0.09714378
0.09863307
0.09997679
0.101197
0.1023146
0.1033117
0.1040106
0.1035711
0.1028996
0.1019455
0.1008798
0.09972014
0.09844651
0.09703757
0.09548295
0.09379156
0.09199693
0.09014778
0.08834268
0.08680566
0.08567521
0.08507493
0.0850804
0.08569465
0.08684493
0.08840918
0.09024979
0.09213912
0.09397547
0.09571193
0.097312
0.09876527
0.1000813
0.1012812
0.1023846
0.1033731
0.1040684
0.1036784
0.1030137
0.1020759
0.101037
0.09991609
0.09869499
0.09735414
0.09588479
0.09429728
0.09262685
0.09092675
0.0892681
0.08785184
0.08681424
0.0862655
0.08627256
0.08683803
0.08789746
0.08934207
0.09103702
0.09277501
0.0944878
0.09611991
0.09763411
0.09901877
0.1002819
0.1014426
0.1025189
0.1034907
0.1041789
0.1038319
0.1031767
0.1022619
0.1012606
0.1001939
0.0990458
0.09779896
0.09644626
0.09499889
0.0934917
0.0919799
0.09054635
0.08927926
0.08836322
0.08788079
0.08788989
0.08839262
0.08933307
0.09063031
0.09209982
0.0936492
0.09519851
0.09668972
0.0980865
0.09937647
0.100566
0.101672
0.1027101
0.1036584
0.1043365
0.1040248
0.1033811
0.1024944
0.101539
0.1005379
0.09947751
0.09834245
0.09712701
0.09584197
0.09451933
0.09321271
0.09199363
0.09095264
0.09018385
0.08976801
0.08977939
0.0902196
0.09101558
0.09208861
0.09334251
0.09468776
0.09605213
0.09738034
0.09863908
0.09981653
0.1009177
0.1019575
0.1029493
0.1038688
0.1045349
0.1042491
0.1036184
0.1027636
0.1018597
0.1009316
0.09996735
0.09895341
0.09788469
0.09677057
0.09563839
0.09453449
0.09352052
0.09266878
0.09205208
0.09173062
0.09174408
0.09209346
0.09274055
0.09362527
0.09467517
0.09581837
0.09699202
0.09814874
0.09926012
0.1003159
0.1013203
0.1022867
0.1032265
0.1041138
0.1047665
0.1044972
0.1038807
0.1030603
0.1022114
0.1013598
0.1004948
0.09960372
0.09868143
0.09773515
0.09678695
0.09587387
0.09504545
0.09435783
0.09386615
0.09361508
0.09363044
0.09391281
0.09443715
0.09515962
0.09602549
0.09697831
0.09796796
0.09895655
0.0999211
0.1008536
0.1017585
0.102648
0.1035325
0.1043851
0.1050235
0.1047626
0.1041613
0.1033775
0.1025856
0.1018114
0.1010444
0.1002721
0.09948854
0.09869835
0.09791825
0.09717669
0.09651154
0.09596543
0.09557913
0.09538525
0.09540225
0.09563032
0.09605175
0.09663468
0.09733849
0.09812045
0.09894225
0.09977476
0.1006005
0.101414
0.1022207
0.1030327
0.1038599
0.1046758
0.105299
0.1050399
0.1044556
0.1037112
0.1029782
0.1022808
0.1016079
0.1009463
0.1002889
0.09963764
0.09900441
0.0984103
0.09788343
0.09745525
0.09715571
0.09700844
0.09702682
0.09721085
0.09754782
0.0980146
0.09858144
0.09921684
0.0998923
0.1005862
0.1012859
0.1019888
0.1027014
0.1034364
0.1042047
0.104981
0.1055872
0.1053252
0.1047616
0.1040616
0.1033905
0.1027692
0.1021851
0.1016239
0.1010774
0.1005452
0.1000354
0.09956324
0.0991492
0.09881622
0.09858608
0.09847593
0.0984955
0.0986447
0.09891433
0.09928765
0.09974309
0.1002577
0.1008105
0.1013858
0.101975
0.1025778
0.1032018
0.1038607
0.1045669
0.1052985
0.105884
0.1056152
0.10508
0.1044338
0.1038303
0.1032851
0.1027838
0.1023115
0.1018594
0.1014258
0.1010159
0.1006407
0.1003154
0.1000565
0.09988012
0.09979866
0.09981929
0.0999419
0.1001598
0.1004607
0.100829
0.1012478
0.1017017
0.1021794
0.1026749
0.1031892
0.1037305
0.1043133
0.1049515
0.1056289
0.1061857
0.1059056
0.1054141
0.1048377
0.1043109
0.1038428
0.1034178
0.1030219
0.1026471
0.1022914
0.1019588
0.1016575
0.1013988
0.1011953
0.1010589
0.1009987
0.1010204
0.1011237
0.1013035
0.101551
0.1018542
0.1022007
0.1025787
0.1029795
0.1033986
0.1038371
0.1043024
0.104808
0.1053689
0.1059753
0.1064877
0.1061885
0.1057681
0.1052859
0.1048474
0.1044562
0.1040991
0.1037657
0.1034503
0.1031524
0.1028757
0.1026269
0.1024152
0.1022505
0.102142
0.102097
0.1021197
0.1022099
0.1023638
0.1025744
0.1028325
0.1031282
0.1034519
0.1037964
0.1041572
0.1045342
0.104932
0.1053604
0.1058319
0.1063421
0.1067817
0.1064429
0.1061356
0.1057744
0.1054304
0.1051094
0.1048066
0.1045183
0.1042431
0.1039826
0.1037412
0.1035254
0.103343
0.1032025
0.1031115
0.1030761
0.1030998
0.1031825
0.103321
0.1035094
0.1037402
0.1040048
0.104295
0.1046038
0.1049259
0.105259
0.1056032
0.1059611
0.1063366
0.1067228
0.107046
0.1066108
0.1064453
0.1061974
0.1059248
0.1056478
0.105374
0.1051069
0.1048493
0.1046048
0.1043784
0.1041765
0.1040066
0.1038765
0.1037932
0.1037622
0.1037867
0.1038667
0.1039991
0.1041787
0.1043986
0.104651
0.1049278
0.1052222
0.1055282
0.1058412
0.1061572
0.1064712
0.1067742
0.1070442
0.1072208
0.1252213
0.1251364
0.1249846
0.1247873
0.1245618
0.1243198
0.1240694
0.1238175
0.1235711
0.1233381
0.1231274
0.1229485
0.1228108
0.1227227
0.1226904
0.1227176
0.1228041
0.1229466
0.1231389
0.1233726
0.1236381
0.1239254
0.124225
0.1245279
0.1248261
0.1251112
0.1253735
0.1255996
0.125771
0.1258654
0.1251334
0.1250039
0.1248016
0.124562
0.124303
0.1240337
0.1237598
0.1234864
0.1232196
0.1229673
0.1227387
0.122544
0.1223933
0.1222959
0.1222586
0.1222853
0.1223761
0.122527
0.1227315
0.1229802
0.1232628
0.1235687
0.1238879
0.1242117
0.124533
0.1248451
0.125141
0.1254101
0.1256332
0.1257736
0.1249752
0.1247952
0.1245246
0.1242196
0.1239031
0.1235829
0.1232624
0.1229449
0.1226358
0.122343
0.1220766
0.1218484
0.1216703
0.1215532
0.1215054
0.1215314
0.1216313
0.1218006
0.1220311
0.1223121
0.1226312
0.1229765
0.123337
0.1237041
0.1240712
0.124434
0.1247876
0.125123
0.1254159
0.1256079
0.1247681
0.1245458
0.1242099
0.1238343
0.1234485
0.1230615
0.1226758
0.1222938
0.1219209
0.1215658
0.1212408
0.1209602
0.120739
0.120591
0.1205266
0.1205518
0.1206666
0.1208652
0.1211373
0.1214691
0.1218455
0.1222517
0.122675
0.1231056
0.1235373
0.1239665
0.1243896
0.1247964
0.1251556
0.1253908
0.1245297
0.1242741
0.1238808
0.123436
0.1229755
0.1225104
0.1220436
0.1215778
0.1211193
0.1206791
0.1202727
0.1199186
0.1196365
0.1194447
0.119357
0.1193813
0.1195175
0.1197581
0.1200894
0.1204931
0.1209496
0.1214397
0.1219475
0.122461
0.1229732
0.1234802
0.123978
0.1244543
0.1248715
0.1251404
0.1242721
0.1239895
0.1235456
0.1230342
0.1224956
0.1219432
0.1213809
0.1208125
0.1202463
0.1196966
0.1191838
0.1187326
0.1183695
0.118119
0.1180001
0.1180233
0.1181887
0.118486
0.1188965
0.1193958
0.1199573
0.1205558
0.1211703
0.1217857
0.1223928
0.1229867
0.1235625
0.1241055
0.1245737
0.1248698
0.1240041
0.1236981
0.123208
0.1226317
0.1220123
0.1213644
0.1206933
0.1200041
0.1193078
0.1186232
0.1179773
0.1174031
0.1169364
0.1166105
0.1164512
0.1164733
0.1166766
0.1170471
0.1175594
0.1181801
0.1188735
0.1196059
0.1203498
0.1210854
0.1218008
0.1224899
0.1231463
0.1237543
0.1242688
0.1245883
0.123733
0.1234057
0.1228719
0.1222315
0.1215286
0.1207784
0.1199865
0.1191597
0.1183119
0.1174671
0.1166606
0.1159361
0.1153414
0.1149216
0.1147122
0.1147328
0.1149837
0.1154456
0.1160839
0.1168534
0.1177063
0.1185982
0.1194931
0.1203659
0.1212017
0.1219929
0.1227328
0.1234049
0.1239631
0.1243038
0.123466
0.1231187
0.122543
0.1218392
0.1210512
0.1201937
0.119272
0.1182938
0.1172758
0.1162481
0.115255
0.1143534
0.1136061
0.1130735
0.1128032
0.1128222
0.1131308
0.113703
0.1144917
0.115437
0.1164755
0.1175499
0.1186147
0.1196388
0.1206044
0.1215029
0.1223279
0.1230634
0.1236635
0.1240242
0.1232115
0.1228452
0.1222295
0.1214641
0.1205915
0.119625
0.1185689
0.117431
0.1162302
0.1150024
0.1138021
0.1127003
0.1117779
0.111114
0.1107725
0.1107897
0.1111661
0.1118667
0.1128284
0.1139724
0.1152175
0.1164917
0.1177395
0.1189235
0.1200237
0.1210314
0.1219411
0.1227383
0.1233785
0.1237583
0.1229784
0.1225946
0.1219418
0.1211184
0.120165
0.1190929
0.1179044
0.1166065
0.1152198
0.113785
0.1123662
0.1110488
0.1099334
0.109122
0.1086998
0.108715
0.1091685
0.1100136
0.1111662
0.1125246
0.1139878
0.1154691
0.1169032
0.1182477
0.1194807
0.1205944
0.1215851
0.1224406
0.1231181
0.1235154
0.1227765
0.1223773
0.1216916
0.1208165
0.1197905
0.1186221
0.1173116
0.1158643
0.1143013
0.1126672
0.1110331
0.1094979
0.1081788
0.107206
0.1066994
0.1067124
0.1072465
0.1082506
0.1096048
0.1111803
0.1128584
0.1145394
0.1161503
0.1176449
0.1190007
0.1202111
0.1212748
0.1221822
0.1228929
0.1233058
0.1226151
0.1222034
0.1214909
0.1205736
0.1194876
0.1182391
0.116826
0.1152519
0.1135376
0.1117295
0.1099034
0.108165
0.1066605
0.1055627
0.1049861
0.104997
0.1055974
0.1067241
0.1082629
0.1100407
0.1119108
0.1137663
0.1155292
0.1171513
0.1186103
0.1199013
0.1210255
0.1219755
0.1227132
0.1231389
0.1225026
0.122082
0.1213506
0.1204031
0.1192743
0.1179682
0.1164809
0.1148143
0.1129885
0.1110506
0.1090786
0.1071795
0.1055511
0.1043569
0.1037267
0.103736
0.1043872
0.1056082
0.1072702
0.1092083
0.1112248
0.1132104
0.1150854
0.1168006
0.1183344
0.1196835
0.1208509
0.1218314
0.1225883
0.123023
0.1224453
0.12202
0.1212787
0.1203156
0.1191643
0.1178281
0.1163017
0.1145863
0.1127013
0.1106938
0.1086428
0.106661
0.1049641
0.1037172
0.1030577
0.1030661
0.1037451
0.1050176
0.1067479
0.1087683
0.1108642
0.1129196
0.1148543
0.1166187
0.1181919
0.1195715
0.1207616
0.121758
0.122525
0.1229644
0.1224466
0.1220213
0.12128
0.1203168
0.1191655
0.1178292
0.1163028
0.1145872
0.1127021
0.1106945
0.1086434
0.1066615
0.1049645
0.1037175
0.1030581
0.1030664
0.1037454
0.105018
0.1067485
0.108769
0.110865
0.1129207
0.1148555
0.1166201
0.1181935
0.1195731
0.1207634
0.1217599
0.1225269
0.1229665
0.1225065
0.1220858
0.1213544
0.1204068
0.1192778
0.1179716
0.1164841
0.1148173
0.1129912
0.111053
0.1090807
0.1071812
0.1055525
0.104358
0.1037277
0.103737
0.1043883
0.1056095
0.1072718
0.1092104
0.1112274
0.1132135
0.1150889
0.1168046
0.1183389
0.1196884
0.1208562
0.121837
0.1225942
0.1230291
0.1226218
0.1222099
0.1214974
0.1205799
0.1194937
0.1182449
0.1168315
0.115257
0.1135422
0.1117336
0.109907
0.108168
0.106663
0.1055648
0.104988
0.1049988
0.1055994
0.1067264
0.1082657
0.1100442
0.1119151
0.1137713
0.115535
0.1171579
0.1186176
0.1199093
0.1210341
0.1219846
0.1227228
0.1231487
0.122786
0.1223867
0.1217009
0.1208256
0.1197992
0.1186305
0.1173195
0.1158716
0.1143081
0.1126732
0.1110384
0.1095025
0.1081827
0.1072094
0.1067024
0.1067153
0.1072495
0.108254
0.109609
0.1111853
0.1128644
0.1145464
0.1161583
0.1176539
0.1190106
0.1202219
0.1212864
0.1221945
0.1229057
0.1233189
0.122991
0.1226071
0.121954
0.1211303
0.1201766
0.1191039
0.1179149
0.1166163
0.1152288
0.1137932
0.1123735
0.1110552
0.109939
0.1091269
0.1087042
0.1087193
0.109173
0.1100185
0.1111719
0.1125312
0.1139955
0.1154779
0.1169132
0.1182588
0.119493
0.1206077
0.1215993
0.1224555
0.1231337
0.1235314
0.1232272
0.1228608
0.1222449
0.121479
0.120606
0.1196389
0.1185822
0.1174435
0.1162418
0.1150129
0.1138116
0.1127088
0.1117854
0.1111208
0.1107787
0.1107957
0.1111722
0.1118732
0.1128357
0.1139806
0.1152268
0.1165023
0.1177513
0.1189367
0.1200381
0.1210469
0.1219576
0.1227556
0.1233965
0.1237766
0.1234849
0.1231375
0.1225615
0.1218573
0.1210687
0.1202106
0.1192882
0.1183091
0.11729
0.1162612
0.115267
0.1143642
0.1136158
0.1130823
0.1128114
0.1128301
0.1131387
0.1137113
0.1145007
0.1154469
0.1164865
0.1175621
0.1186283
0.1196537
0.1206206
0.1215203
0.1223463
0.1230826
0.1236834
0.1240445
0.123755
0.1234275
0.1228934
0.1222526
0.1215491
0.1207982
0.1200055
0.1191778
0.1183288
0.1174828
0.116675
0.1159492
0.1153534
0.1149326
0.1147224
0.1147427
0.1149934
0.1154557
0.1160945
0.116865
0.117719
0.118612
0.1195082
0.1203824
0.1212195
0.1220119
0.1227528
0.1234257
0.1239845
0.1243256
0.1240291
0.1237229
0.1232325
0.1226557
0.1220357
0.1213872
0.1207151
0.1200248
0.1193273
0.1186415
0.1179942
0.1174186
0.1169506
0.1166236
0.1164636
0.1164851
0.1166882
0.117059
0.1175717
0.1181933
0.1188877
0.1196213
0.1203664
0.1211032
0.12182
0.1225101
0.1231676
0.1237764
0.1242915
0.1246113
0.1242997
0.1240169
0.1235727
0.1230609
0.1225218
0.1219686
0.1214054
0.1208359
0.1202684
0.1197173
0.119203
0.1187504
0.118386
0.1181343
0.1180144
0.1180371
0.1182022
0.1184996
0.1189105
0.1194104
0.1199729
0.1205725
0.1211882
0.1218048
0.122413
0.1230081
0.1235847
0.1241286
0.1245973
0.1248937
0.1245596
0.1243038
0.1239103
0.1234651
0.123004
0.1225382
0.1220704
0.1216035
0.1211437
0.1207021
0.1202941
0.1199385
0.1196551
0.1194619
0.1193732
0.1193968
0.1195327
0.1197733
0.1201048
0.1205091
0.1209664
0.1214576
0.1219664
0.1224811
0.1229943
0.1235023
0.124001
0.124478
0.1248957
0.1251649
0.1247998
0.1245774
0.1242413
0.1238653
0.123479
0.1230913
0.1227047
0.1223216
0.1219473
0.1215908
0.1212642
0.120982
0.1207594
0.12061
0.1205445
0.120569
0.1206833
0.1208817
0.121154
0.1214863
0.1218634
0.1222706
0.1226948
0.1231265
0.1235592
0.1239893
0.1244132
0.1248206
0.1251803
0.1254157
0.1250083
0.1248282
0.1245574
0.1242522
0.1239352
0.1236143
0.1232929
0.1229743
0.1226639
0.1223695
0.1221016
0.1218718
0.1216922
0.1215737
0.1215247
0.1215498
0.1216492
0.1218183
0.1220489
0.1223302
0.12265
0.1229961
0.1233575
0.1237255
0.1240936
0.1244571
0.1248115
0.1251475
0.1254407
0.125633
0.1251674
0.1250378
0.1248354
0.1245956
0.1243362
0.1240663
0.1237915
0.1235169
0.1232489
0.122995
0.1227648
0.1225685
0.1224163
0.1223174
0.1222789
0.1223047
0.1223948
0.1225455
0.12275
0.122999
0.1232822
0.1235888
0.1239089
0.1242336
0.1245557
0.1248686
0.1251651
0.1254347
0.1256582
0.1257987
0.1252557
0.1251708
0.1250189
0.1248215
0.1245956
0.1243529
0.1241017
0.1238487
0.123601
0.1233665
0.1231541
0.1229736
0.1228343
0.1227447
0.1227112
0.1227374
0.1228233
0.1229654
0.1231577
0.1233917
0.1236578
0.1239458
0.1242462
0.12455
0.1248489
0.1251348
0.1253977
0.1256243
0.1257961
0.1258906
0.1358679
0.1358138
0.1357079
0.1355584
0.1353752
0.1351679
0.1349445
0.1347128
0.1344811
0.1342584
0.1340548
0.1338805
0.1337458
0.1336596
0.1336283
0.1336558
0.1337419
0.1338832
0.134073
0.1343024
0.1345611
0.1348382
0.135123
0.1354054
0.135676
0.1359256
0.1361445
0.1363219
0.1364467
0.13651
0.1358104
0.1357413
0.1356127
0.1354387
0.1352318
0.1350019
0.1347566
0.1345036
0.1342509
0.134008
0.1337854
0.1335945
0.1334461
0.1333501
0.1333137
0.133341
0.1334318
0.1335824
0.1337854
0.1340312
0.1343084
0.1346054
0.1349108
0.1352142
0.1355064
0.1357785
0.1360212
0.1362233
0.136371
0.1364496
0.1356978
0.1356059
0.1354399
0.1352231
0.1349725
0.134699
0.1344107
0.1341147
0.1338194
0.1335352
0.1332738
0.1330484
0.1328718
0.1327556
0.1327085
0.1327354
0.1328361
0.133006
0.1332364
0.1335159
0.1338311
0.1341687
0.1345161
0.134862
0.1351969
0.1355122
0.1357987
0.1360439
0.1362294
0.136331
0.1355381
0.1354218
0.135213
0.1349435
0.1346355
0.1343021
0.1339518
0.1335924
0.1332331
0.1328857
0.1325645
0.1322855
0.1320649
0.1319172
0.1318534
0.1318797
0.1319959
0.1321962
0.1324696
0.1328015
0.1331756