/*--------------------------------*- C++ -*----------------------------------*\
| =========                 |                                                 |
| \\      /  F ield         | OpenFOAM: The Open Source CFD Toolbox           |
|  \\    /   O peration     | Version:  2506                                  |
|   \\  /    A nd           | Website:  www.openfoam.com                      |
|    \\/     M anipulation  |                                                 |
\*---------------------------------------------------------------------------*/
FoamFile
{
    version     2.0;
    format      ascii;
    arch        "LSB;label=32;scalar=64";
    class       volScalarField;
    location    "3500/air";
    object      qr;
}
// * * * * * * * * * * * * * * * * * * * * * * * * * * * * * * * * * * * * * //

dimensions      [1 0 -3 0 0 0 0];

internalField   uniform 0;

boundaryField
{
    maxY
    {
        type            calculated;
        value           uniform 0;
    }
    minX
    {
        type            calculated;
        value           uniform 0;
    }
    maxX
    {
        type            calculated;
        value           uniform 0;
    }
    minY
    {
        type            calculated;
        value           uniform 0;
    }
    maxZ
    {
        type            calculated;
        value           uniform 0;
    }
    air_to_solid
    {
        type            greyDiffusiveRadiationViewFactor;
        value           nonuniform List<scalar> 
1536
(
6.283697
6.196852
6.168803
6.150481
6.133841
6.133131
6.252259
6.170722
6.141446
6.122355
6.104902
6.104221
6.242842
6.160412
6.130825
6.111484
6.093899
6.093074
6.24251
6.160074
6.130421
6.11104
6.093485
6.092657
6.243141
6.161152
6.131758
6.112593
6.09515
6.094515
6.259226
6.17911
6.150187
6.131384
6.114289
6.113884
4.067854
7.014736
-96.43154
2.69284
-97.10342
2.686124
-97.13443
2.682588
-97.14058
2.674748
-97.12938
2.67725
-97.08616
2.422571
6.386134
-96.19301
-97.0785
-97.11014
-97.11632
-97.10509
-97.06071
1.344214
6.388547
-96.22467
-97.11079
-97.14298
-97.14928
-97.1379
-97.09291
1.335724
6.390103
-96.23093
-97.11704
-97.14934
-97.15568
-97.14425
-97.09917
1.337233
6.382758
-96.21985
-97.10589
-97.138
-97.14426
-97.13292
-97.08801
1.34072
6.381045
-96.17713
-97.06194
-97.09335
-97.09949
-97.08831
-97.04424
1.360115
4.195683
2.819729
2.813003
2.80946
2.801614
2.804111
5.225058
4.207029
4.199208
4.187914
4.186069
4.181819
4.180315
4.175553
4.174429
4.177411
4.182986
4.154297
7.670378
7.876976
6.208958
6.259858
6.191875
6.174112
6.179071
6.155401
6.154938
6.149903
6.135499
6.137522
6.130867
6.117388
6.129719
6.113528
6.109175
6.134632
6.11285
6.077797
3.837063
3.680458
7.871387
7.86678
6.183605
6.243513
6.174129
6.146949
6.161157
6.137188
6.127005
6.131627
6.117027
6.108795
6.112334
6.098683
6.100517
6.094758
6.090287
6.069459
6.093972
6.059164
3.671985
3.661295
7.866916
7.867471
6.17338
6.242553
6.173032
6.136402
6.160077
6.136009
6.116183
6.130407
6.115718
6.097821
6.111011
6.097357
6.089412
6.093441
6.088966
6.058195
6.092596
6.057672
3.660281
3.660081
7.867166
7.864798
6.173024
6.242547
6.173346
6.136017
6.160406
6.136477
6.115741
6.130923
6.116357
6.097394
6.111681
6.098097
6.089021
6.094201
6.089802
6.05777
6.093495
6.058882
3.660426
3.66268
7.864074
7.866994
6.174087
6.251684
6.18357
6.137283
6.170745
6.147138
6.117251
6.141687
6.127403
6.099037
6.122804
6.109405
6.090788
6.105569
6.101365
6.060047
6.105133
6.070921
3.664369
3.677026
7.872052
7.69987
6.191849
6.282944
6.208928
5.343414
4.340383
6.155623
6.196946
6.174554
4.33256
4.321257
6.135956
6.169357
6.155825
4.31941
4.315153
6.118084
6.15148
6.138859
4.313647
4.308881
6.110136
6.135294
6.131538
4.307755
4.310734
6.079448
6.135078
6.13702
3.686128
4.316308
3.848469
4.165397
2.698481
-97.08824
6.389229
-96.17724
-97.04634
2.68678
-97.12971
-97.06204
-97.08868
2.683931
-97.14061
-97.09346
-97.09962
2.676736
-97.1342
-97.0996
-97.09328
2.673496
-97.10219
-97.08842
-97.06091
2.922731
-97.57691
-97.04436
1.351669
-97.96424
-97.06265
6.387234
-96.2199
-97.08988
-97.10533
-97.10593
-97.13315
-97.11634
-97.13804
-97.14432
-97.10998
-97.1443
-97.13791
-97.0774
-97.13296
-97.10493
-97.98008
-97.08806
1.336134
-98.0071
-97.0947
6.390607
-96.23093
-97.10093
-97.13808
-97.11704
-97.14442
-97.1493
-97.14935
-97.1557
-97.14287
-97.15568
-97.14924
-97.10981
-97.14425
-97.11609
-98.0119
-97.09917
1.336718
-98.01821
-97.10093
6.385048
-96.22464
-97.09468
-97.14442
-97.11076
-97.13806
-97.15569
-97.14296
-97.14927
-97.14924
-97.14925
-97.14284
-97.11609
-97.13787
-97.10977
-98.0182
-97.09287
1.339305
-98.01187
-97.08984
6.378843
-96.19292
-97.06256
-97.13312
-97.07841
-97.10525
-97.14428
-97.11006
-97.11625
-97.13787
-97.11623
-97.10989
-97.10488
-97.105
-97.0773
-98.00705
-97.06061
1.351726
-97.97998
-97.04623
7.026955
-96.408
2.825371
-97.05164
-97.08858
-97.06682
2.813661
-97.0931
-97.09952
-97.09783
2.810804
-97.10401
-97.09317
-97.10398
2.803603
-97.0976
-97.06079
-97.09277
2.800358
-97.06557
-97.96412
-97.04954
2.43723
2.926135
-97.55329
6.260152
6.248355
6.284312
5.19803
7.899033
5.342027
7.907774
6.196901
6.187596
6.206406
5.332253
5.325237
6.172648
6.163986
6.177605
5.312674
5.309786
6.154234
6.146034
6.158783
5.301662
5.298887
6.138807
6.13094
6.14177
5.291411
5.289996
6.148179
6.140106
6.141033
5.296487
5.301502
4.783076
5.021479
6.221786
6.226622
6.247638
7.873585
7.869889
6.155906
6.160992
6.165677
6.131283
6.136437
6.136311
6.112493
6.117715
6.117149
6.096548
6.101841
6.099628
6.106431
6.111723
6.098914
5.02651
5.021191
6.216378
6.216662
6.24261
7.866969
7.867064
6.150324
6.150609
6.160135
6.125404
6.125741
6.130501
6.106441
6.106803
6.111126
6.090456
6.090815
6.09354
6.100136
6.100534
6.092694
5.01511
5.01473
6.216248
6.216276
6.242431
7.867025
7.86666
6.150265
6.150264
6.160069
6.125358
6.12532
6.130452
6.106427
6.106362
6.111102
6.090497
6.090413
6.093566
6.10021
6.100089
6.092765
5.015022
5.015352
6.218758
6.217247
6.244492
7.865611
7.866077
6.152996
6.151388
6.162742
6.128445
6.126722
6.133457
6.10975
6.10795
6.11438
6.093942
6.092101
6.096986
6.103971
6.102044
6.096413
5.018104
5.020396
6.24636
6.234314
6.270598
7.877324
7.888208
6.182452
6.169494
6.191992
6.158308
6.145243
6.163231
6.140001
6.126825
6.144527
6.124652
6.111314
6.12759
6.134554
6.121396
6.127183
5.038719
5.048534
5.316516
5.34039
5.332523
5.325784
5.314026
5.311402
5.30406
5.301546
5.294864
5.293721
5.30105
5.306456
-96.80339
-96.92221
2.954058
-96.16699
6.501649
-97.03364
-97.11474
2.689607
-97.02231
-97.05656
-97.13764
2.685592
-97.05337
-97.0585
-97.13957
2.680872
-97.0595
-97.04182
-97.12287
2.673141
-97.04832
-96.99933
-97.07637
2.678602
-97.00491
-96.8499
-96.83824
-96.20465
6.385438
-97.10209
-97.09009
-97.09042
-97.12549
-97.11336
-97.12226
-97.12747
-97.11533
-97.12846
-97.11059
-97.09852
-97.1172
-97.069
-97.05721
-97.07259
-96.87317
-96.86994
-96.22791
6.389718
-97.12583
-97.12257
-97.11403
-97.14957
-97.14626
-97.14628
-97.1516
-97.14828
-97.1526
-97.13451
-97.13123
-97.14119
-97.09246
-97.08922
-97.09615
-96.8752
-96.87617
-96.22995
6.388939
-97.12787
-97.12885
-97.11607
-97.15165
-97.15264
-97.14836
-97.15368
-97.15467
-97.15468
-97.13657
-97.13755
-97.14326
-97.0945
-97.09548
-97.09819
-96.85866
-96.86512
-96.21339
6.380565
-97.11108
-97.11765
-97.09936
-97.1346
-97.14126
-97.13135
-97.13659
-97.14327
-97.13758
-97.11964
-97.12626
-97.12627
-97.07784
-97.08434
-97.08148
-96.80303
-96.82219
-96.15864
6.393912
-97.05172
-97.07344
-97.04031
-97.07472
-97.09656
-97.07152
-97.07666
-97.0985
-97.07765
-97.05996
-97.08177
-97.06647
-97.01919
-97.0409
-97.02273
5.342047
5.353459
5.288097
4.404373
4.59953
4.613646
4.233961
4.622262
5.315985
5.320006
4.605306
4.193962
4.599607
4.592798
4.190378
4.595623
5.304388
5.307069
4.590637
4.184588
4.588868
4.585615
4.183216
4.587238
5.293563
5.296142
4.583918
4.178702
4.582147
4.578768
4.177068
4.580384
5.291658
5.289862
4.577566
4.173981
4.577081
4.580535
4.174763
4.577858
5.013922
5.270115
4.58617
4.173451
4.590697
4.281549
4.131003
4.550932
7.88013
7.890806
7.715911
7.872347
8.003404
8.019136
7.883899
8.025693
6.235903
6.225279
6.218863
6.246614
6.27129
6.234553
6.222084
6.204605
6.209614
6.189332
6.180212
6.183059
6.182325
6.191936
6.169392
6.174702
6.168388
6.161736
6.167946
6.159411
6.163351
6.157914
6.162903
6.144901
6.153178
6.148546
6.140152
6.149773
6.141671
6.145537
6.139346
6.143937
6.126249
6.134838
6.130551
6.12171
6.137161
6.129348
6.137531
6.123718
6.126728
6.110488
6.122035
6.122413
6.108786
6.15232
6.146367
6.107979
6.133301
6.126019
6.120281
6.136157
6.090383
6.123307
5.034963
5.044338
3.984774
3.716977
4.194875
4.217551
3.692801
4.225726
7.867166
7.867961
8.013177
7.868439
8.009922
8.00782
7.867107
8.008343
6.196546
6.201478
6.178608
6.218944
6.244937
6.217406
6.193664
6.1757
6.192105
6.148199
6.153304
6.141826
6.152954
6.162741
6.151357
6.145228
6.138831
6.14361
6.126503
6.131675
6.121816
6.128243
6.133291
6.12656
6.123445
6.118742
6.121745
6.107911
6.113148
6.103542
6.109393
6.114059
6.10766
6.104803
6.100425
6.103065
6.094812
6.100125
6.095204
6.093418
6.096502
6.091674
6.091673
6.092047
6.089927
6.109588
6.114862
6.064213
6.103251
6.095747
6.101456
6.106385
6.060996
6.104561
5.016073
5.017922
4.209069
3.666577
4.203662
4.198388
3.663215
4.200307
7.867201
7.867187
8.00782
7.867234
8.008044
8.008234
7.867466
8.008228
6.19107
6.191356
6.173097
6.216305
6.24256
6.216296
6.190999
6.173032
6.190994
6.142546
6.142842
6.136092
6.150259
6.160074
6.150261
6.142474
6.136012
6.142474
6.120565
6.120909
6.115831
6.125308
6.13041
6.125303
6.120464
6.115725
6.120457
6.101841
6.102202
6.09746
6.106333
6.111016
6.10633
6.101735
6.097355
6.101734
6.088707
6.089065
6.089051
6.090357
6.093435
6.090366
6.088611
6.088952
6.088624
6.103189
6.103608
6.057775
6.100015
6.092585
6.100024
6.103057
6.057647
6.103065
5.014795
5.01467
4.197377
3.659897
4.19698
4.197104
3.659876
4.196935
7.865751
7.866189
8.00798
7.866552
8.007465
8.006053
7.865715
8.006776
6.190966
6.190983
6.173013
6.216286
6.242397
6.216535
6.19102
6.173072
6.191289
6.142491
6.142478
6.13604
6.150338
6.160129
6.150629
6.14258
6.136145
6.14289
6.120524
6.120474
6.115797
6.125493
6.13057
6.125865
6.120672
6.115956
6.12106
6.101838
6.101766
6.097472
6.106601
6.111266
6.107026
6.10202
6.097658
6.102453
6.088763
6.088673
6.089119
6.090692
6.093754
6.091145
6.088965
6.089329
6.089425
6.103279
6.103139
6.057941
6.100461
6.092995
6.10099
6.103559
6.058266
6.104126
5.016695
5.015864
4.197405
3.660909
4.197836
4.199469
3.661615
4.198478
7.871076
7.867687
8.005563
7.863824
8.005606
8.009519
7.864593
8.006718
6.19357
6.192022
6.175655
6.221578
6.247125
6.226397
6.196446
6.178567
6.201375
6.145311
6.143671
6.138955
6.155965
6.165686
6.161071
6.148307
6.141984
6.153438
6.123685
6.121935
6.119022
6.13153
6.136513
6.13673
6.126797
6.122157
6.13202
6.105199
6.103383
6.100864
6.112923
6.117533
6.118217
6.108388
6.104068
6.113704
6.092241
6.090388
6.092663
6.097171
6.100201
6.102565
6.09549
6.095937
6.10091
6.1072
6.105227
6.062073
6.107283
6.099703
6.112707
6.110552
6.065484
6.115973
5.029848
5.0241
4.201069
3.666955
4.203569
4.213466
3.670974
4.207497
7.919048
7.909317
8.015039
7.879077
8.021801
7.745984
7.873013
8.005141
6.221983
6.209513
6.204588
6.259869
6.283552
6.247981
6.23579
6.218848
6.22511
5.342034
5.35305
5.406051
4.53756
4.723092
4.616177
4.367316
4.624524
6.174896
6.161898
6.168649
6.197056
6.206478
6.187808
6.189567
6.183374
6.18054
5.317072
5.320825
4.607867
4.327311
4.602196
4.59544
4.323724
4.598239
6.153636
6.14055
6.149069
6.17312
6.177999
6.164652
6.168495
6.163977
6.160188
5.306525
5.308946
4.593307
4.317927
4.591564
4.588364
4.316552
4.589961
6.13556
6.122344
6.131342
6.155016
6.159486
6.147144
6.150634
6.146479
6.142893
5.296749
5.299064
4.586694
4.312033
4.584949
4.581624
4.310398
4.583213
6.123043
6.109678
6.123497
6.139916
6.142794
6.132513
6.138356
6.138817
6.131042
5.295936
5.293861
4.58045
4.307306
4.579992
4.583502
4.308088
4.580797
6.137565
6.124564
6.092223
6.149657
6.14241
6.142188
6.153952
6.110046
6.148611
4.790197
5.024305
5.026403
5.276294
4.222497
3.699166
4.231276
4.589166
4.306776
4.59395
3.995642
4.293021
3.724712
4.141345
4.201638
4.555596
-96.97175
-97.05646
2.728007
-97.00697
-96.80379
-96.15924
6.402569
-96.8223
-96.9881
-97.02563
-97.00817
-97.04228
-97.12335
2.687758
-97.04863
-97.05257
-97.04117
-97.07355
-97.06126
-97.06762
-97.08229
-97.05858
-97.13966
2.684902
-97.05953
-97.07557
-97.07238
-97.09666
-97.07759
-97.07853
-97.09868
-97.05642
-97.13749
2.678877
-97.05316
-97.07751
-97.0785
-97.09861
-97.07544
-97.07218
-97.09654
-97.03292
-97.11398
2.672521
-97.0211
-97.06083
-97.06734
-97.08188
-97.05188
-97.03999
-97.07288
-97.12204
-97.14982
2.664731
-97.87662
1.527744
-97.02005
-97.02361
-97.04102
-97.16167
-97.94058
1.373958
-97.18395
-97.03604
-97.02431
-97.07448
-96.85872
-96.21344
6.386
-96.86515
-97.04491
-97.0834
-97.05136
-97.11095
-97.0989
-97.11742
-97.11113
-97.09941
-97.11769
-97.12004
-97.12654
-97.12663
-97.12753
-97.11539
-97.12848
-97.13465
-97.1314
-97.1413
-97.1367
-97.13765
-97.14336
-97.12539
-97.11325
-97.12211
-97.13664
-97.13763
-97.14331
-97.13455
-97.13126
-97.14121
-97.10149
-97.08946
-97.08936
-97.1197
-97.12633
-97.12631
-97.11055
-97.09838
-97.11713
-97.21167
-97.19995
-97.99178
1.3398
-97.0779
-97.08154
-97.08439
-97.22052
-98.00061
1.337298
-97.227
-97.05938
-97.05616
-97.09793
-96.87521
-96.22996
6.390448
-96.87618
-97.06142
-97.09997
-97.06238
-97.13481
-97.13153
-97.14137
-97.12788
-97.11608
-97.12885
-97.13687
-97.14344
-97.13784
-97.15164
-97.14833
-97.15261
-97.15166
-97.14837
-97.15264
-97.15374
-97.15471
-97.15472
-97.14949
-97.14618
-97.14617
-97.15369
-97.15469
-97.15468
-97.15158
-97.14826
-97.15257
-97.1253
-97.12203
-97.11306
-97.13658
-97.14327
-97.13756
-97.12737
-97.11512
-97.12834
-97.23507
-97.23182
-98.01517
1.335853
-97.09452
-97.09821
-97.09548
-97.23712
-98.01723
1.336227
-97.23809
-97.06141
-97.06238
-97.09996
-96.87315
-96.22789
6.387209
-96.86992
-97.05937
-97.09791
-97.05613
-97.13686
-97.13784
-97.14343
-97.12581
-97.11401
-97.12254
-97.13479
-97.14135
-97.13151
-97.15373
-97.15472
-97.1547
-97.14955
-97.14626
-97.14623
-97.15162
-97.15259
-97.1483
-97.15157
-97.15256
-97.14825
-97.15158
-97.15258
-97.14825
-97.14947
-97.14615
-97.14615
-97.12735
-97.12833
-97.11511
-97.13449
-97.14117
-97.1312
-97.12528
-97.11304
-97.122
-97.23711
-97.23809
-98.01722
1.337769
-97.09244
-97.09613
-97.08918
-97.23504
-98.01514
1.338418
-97.23178
-97.04486
-97.05132
-97.08335
-96.84983
-96.20458
6.379064
-96.83815
-97.03598
-97.07441
-97.02422
-97.11999
-97.12659
-97.12649
-97.10203
-97.09036
-97.09001
-97.11089
-97.11736
-97.09882
-97.13665
-97.14332
-97.1376
-97.12542
-97.12219
-97.11328
-97.12746
-97.12842
-97.11531
-97.1345
-97.14117
-97.13121
-97.1274
-97.12839
-97.11524
-97.12532
-97.12204
-97.11316
-97.11049
-97.11708
-97.09832
-97.11052
-97.11712
-97.09843
-97.10141
-97.08928
-97.08936
-97.22045
-97.22695
-98.00055
1.342877
-97.06891
-97.0725
-97.05711
-97.21158
-97.9917
1.346355
-97.19985
-96.98725
-97.00806
-97.02477
-96.79667
-96.16213
6.495883
-96.88719
3.08141
-96.96423
-96.99938
-97.01997
2.85494
-97.06041
-97.08219
-97.06677
-97.02606
-97.01472
-97.07813
2.816493
-97.0347
-97.04104
-97.08675
2.814642
-97.07674
-97.09858
-97.07768
-97.04898
-97.04578
-97.10104
2.812469
-97.051
-97.05194
-97.10306
2.811777
-97.07458
-97.09643
-97.07132
-97.05091
-97.05191
-97.10297
2.807742
-97.04883
-97.04557
-97.10088
2.805746
-97.05101
-97.07276
-97.03912
-97.03423
-97.04073
-97.08626
2.800006
-97.02532
-97.0135
-97.07737
2.799385
-97.16091
-97.18383
-97.93997
1.383457
-96.9918
-96.99731
-97.03986
2.805505
-97.1153
-97.87174
1.539271
-97.11475
2.792063
)
;
        qro             uniform 0;
    }
    air_to_floor
    {
        type            greyDiffusiveRadiationViewFactor;
        value           nonuniform List<scalar> 
900
(
23.07603
26.37031
29.3491
32.02503
34.40829
36.50971
38.34191
39.91849
41.27895
42.4171
43.32391
44.02255
44.55254
44.91203
45.08812
45.06796
44.85914
44.46762
43.88615
43.11198
42.12132
40.89786
39.44123
37.75188
35.80738
33.59591
31.10631
28.32871
25.25368
21.86916
26.48385
29.71936
32.63495
35.24502
37.56155
39.59715
41.36585
42.88236
44.18674
45.27452
46.13949
46.80528
47.30891
47.64955
47.81472
47.79434
47.59577
47.22214
46.66523
45.92133
44.96925
43.79278
42.38834
40.75423
38.86869
36.71876
34.29188
31.57645
28.56128
25.23258
29.58153
32.75428
35.60318
38.14429
40.39137
42.35875
44.06188
45.51652
46.76336
47.79933
48.62124
49.25312
49.72943
50.05082
50.20538
50.18509
49.99619
49.64082
49.10932
48.39674
47.48437
46.35615
45.00533
43.42815
41.60357
39.51756
37.15615
34.50605
31.55436
28.28559
32.38106
35.48883
38.26922
40.73995
42.91645
44.81472
46.45159
47.84423
49.03276
50.01664
50.79516
51.3926
51.84139
52.14352
52.2876
52.26749
52.08807
51.75097
51.24501
50.56419
49.69178
48.61198
47.31529
45.79521
44.03224
42.01105
39.71628
37.13304
34.24676
31.04031
34.89175
37.93409
40.64592
43.04652
45.15294
46.98274
48.55408
49.88576
51.01656
51.94914
52.68481
53.24811
53.66976
53.95305
54.08733
54.06709
53.89686
53.57754
53.09671
52.4473
51.61421
50.58194
49.33856
47.87463
46.17251
44.21553
41.987
39.47048
36.64982
33.50631
37.12334
40.10154
42.74645
45.07883
47.11723
48.88068
50.38872
51.66141
52.73639
53.61949
54.31373
54.8439
55.23933
55.50457
55.62972
55.60906
55.44774
55.14534
54.6887
54.06963
53.27438
52.28775
51.09564
49.68584
48.04244
46.14764
43.9834
41.53185
38.77533
35.69366
39.08675
42.00355
44.58465
46.85214
48.82595
50.52654
51.97469
53.19151
54.21399
55.05012
55.70538
56.20388
56.57455
56.82272
56.93943
56.91821
56.7653
56.47882
56.04491
55.45445
54.69482
53.75116
52.6071
51.24832
49.66034
47.82434
45.72113
43.33145
40.63622
37.61388
40.79353
43.65284
46.17435
48.3816
50.29567
51.93809
53.33081
54.49591
55.47007
56.26262
56.88179
57.35097
57.69882
57.93144
58.04004
58.01827
57.87319
57.60137
57.18832
56.62415
55.89727
54.9931
53.89314
52.58134
51.04447
49.26276
47.21593
44.88369
42.24584
39.27926
42.26833
45.07378
47.53949
49.68996
51.54761
53.13522
54.47594
55.59267
56.52188
57.27368
57.85917
58.30098
58.62762
58.84608
58.94693
58.92468
58.78691
58.52879
58.13524
57.59567
56.89943
56.03201
54.97316
53.70536
52.21661
50.48632
48.493
46.21509
43.63105
40.71693
43.5068
46.26592
48.6821
50.78192
52.58929
54.12806
55.42226
56.49558
57.38451
58.09998
58.65522
59.07257
59.38022
59.58621
59.6799
59.65732
59.52598
59.28021
58.90407
58.38643
57.71758
56.88295
55.86102
54.63271
53.18696
51.50234
49.55662
47.32727
44.79165
41.9247
44.48956
47.22691
49.60598
51.66437
53.42996
54.92796
56.18333
57.2204
58.07544
58.76036
59.28986
59.68653
59.97827
60.1736
60.26131
60.23846
60.11232
59.87696
59.5155
59.01638
58.37055
57.56329
56.57211
55.37683
53.96698
52.32039
50.41423
48.22531
45.72954
42.90121
77.16316
47.96253
50.32606
52.35304
54.08532
55.55053
56.77444
57.78212
58.60961
59.27017
59.77828
60.15819
60.43718
60.62367
60.70659
60.68369
60.56189
60.33496
59.98535
59.50106
58.8736
58.08859
57.12291
55.95606
54.57708
52.96189
51.08892
48.9375
46.4736
43.67464
77.89254
48.53637
50.86532
52.86502
54.57056
56.0097
57.20871
58.19319
58.99895
59.64025
60.13155
60.4983
60.76761
60.94697
61.02599
61.00294
60.88447
60.66423
60.3242
59.85175
59.23897
58.47233
57.52965
56.3926
55.04699
53.46166
51.62802
49.61287
18.75933
15.9817
78.09548
48.88894
51.22053
53.2045
54.89166
56.31262
57.49424
58.46256
59.25323
59.88126
60.36088
60.71826
60.98071
61.15502
61.23127
61.20815
61.09202
60.87643
60.54319
60.07919
59.47706
58.72464
57.80333
56.70169
55.40094
53.84963
52.07852
50.09463
19.25818
16.49238
78.26601
49.07153
51.39967
53.37484
55.05244
56.46401
57.63671
58.59658
59.37918
60.00019
60.47381
60.82623
61.08512
61.25687
61.33173
61.30859
61.19365
60.98047
60.65074
60.1911
59.59452
58.84956
57.93906
56.85421
55.57246
54.03544
52.28254
50.31148
19.48834
16.73905
78.26169
49.07021
51.39947
53.37488
55.0525
56.46407
57.63678
58.59664
59.37922
60.00016
60.47365
60.82619
61.08515
61.25691
61.33178
61.30863
61.1937
60.98053
60.6508
60.19117
59.59464
58.8499
57.94028
56.85754
55.57798
54.04193
52.29023
50.31998
19.49896
16.75371
78.06529
48.88101
51.21928
53.20454
54.89189
56.31284
57.49443
58.46272
59.25326
59.88073
60.35919
60.71771
60.98071
61.15514
61.23141
61.2083
61.09217
60.87659
60.54336
60.0794
59.47748
58.72615
57.80924
56.71865
55.43065
53.88565
52.12456
50.14441
19.31374
16.5597
45.63144
48.51203
50.86208
52.86502
54.57098
56.01014
57.20912
58.19348
58.99862
59.63707
60.12215
60.49506
60.76718
60.94713
61.02623
61.0032
60.88474
60.6645
60.32449
59.85213
59.23984
58.47589
57.54441
56.437
55.13081
53.56778
51.78716
49.78266
47.35233
16.161
77.20794
47.97132
50.32768
52.35386
54.08609
55.55128
56.77513
57.78256
58.60842
59.26109
59.75029
60.14902
60.43581
60.62388
60.707
60.68413
60.56234
60.33541
59.98582
59.50162
58.87464
58.09234
57.13785
56.00065
54.6611
53.06819
51.24813
49.10704
46.64474
43.84759
44.50505
47.23202
49.60827
51.66627
53.43182
54.92981
56.18517
57.22215
58.07658
58.75867
59.28194
59.68475
59.97926
60.17514
60.2629
60.24004
60.11387
59.8785
59.51704
59.01795
58.37231
57.56614
56.57937
55.39516
53.9981
52.35775
50.46129
48.27442
45.77877
42.95088
43.51207
46.2696
48.68534
50.78513
52.59253
54.13134
55.42557
56.4989
57.38772
58.10263
58.65669
59.07517
59.38333
59.5894
59.68307
59.66045
59.52906
59.28325
58.90707
58.38938
57.72054
56.88614
55.86522
54.63939
53.19614
51.51252
49.56769
47.33764
44.80039
41.93474
42.27288
45.07825
47.54399
49.69455
51.55229
53.13998
54.48078
55.59758
56.52682
57.27857
57.86391
58.30586
58.63254
58.85096
58.95177
58.92945
58.79162
58.53344
58.13981
57.60016
56.90384
56.03637
54.9776
53.71011
52.22161
50.49119
48.49686
46.21487
43.62321
40.71533
40.79938
43.65883
46.18049
48.3879
50.30212
51.94468
53.33754
54.50277
55.47702
56.26962
56.88882
57.35802
57.70587
57.93843
58.04698
58.02513
57.87996
57.60803
57.19487
56.63057
55.90355
54.99923
53.89914
52.58722
51.05018
49.26793
47.21859
44.8764
42.21821
39.26892
39.09457
42.0116
44.59294
46.86066
48.8347
50.53551
51.98387
53.20089
54.22352
55.05977
55.71512
56.21369
56.58436
56.83249
56.94913
56.92783
56.7748
56.48819
56.05411
55.46346
54.70361
53.75973
52.61545
51.25643
49.66818
47.83176
45.7273
43.33338
40.63039
37.61415
37.13314
40.11164
42.75687
45.08956
47.12825
48.892
50.40033
51.67329
52.7485
53.63177
54.32615
54.85642
55.25189
55.5171
55.64218
55.62143
55.45997
55.1574
54.70054
54.08122
53.2857
52.29879
51.10637
49.69625
48.05253
46.15736
43.99255
41.53977
38.78131
35.70067
34.9035
37.94621
40.65842
43.05941
45.16621
46.99638
48.56808
49.90009
51.03117
51.96398
52.69984
53.26328
53.68499
53.96827
54.10248
54.08213
53.91175
53.59222
53.11115
52.46143
51.62801
50.59539
49.35165
47.88732
46.1848
44.22743
41.99845
39.4814
36.66009
33.51641
32.39469
35.50291
38.28375
40.75494
42.93188
44.83059
46.46788
47.86092
49.04978
50.03393
50.81269
51.41031
51.85918
52.16132
52.30533
52.28511
52.10552
51.76819
51.26194
50.58077
49.70798
48.62777
47.33066
45.81012
44.04668
42.02503
39.72979
37.14607
34.2593
31.05243
29.59698
32.77025
35.61966
38.16129
40.40888
42.37675
44.08036
45.53544
46.78267
47.81895
48.64114
49.27322
49.74964
50.07105
50.22555
50.20513
50.01606
49.66044
49.12862
48.41565
47.50286
46.37419
45.02289
43.44519
41.62008
39.53354
37.1716
34.52098
31.56876
28.29949
26.50102
29.7371
32.65328
35.26392
37.58101
39.61715
41.38638
42.90338
44.20818
45.29631
46.16159
46.82762
47.33139
47.67205
47.83717
47.81666
47.6179
47.24401
46.68675
45.94243
44.98989
43.81292
42.40796
40.77329
38.88717
36.73665
34.30918
31.59317
28.57742
25.24815
23.09481
26.38971
29.36914
32.04569
34.42956
36.53157
38.36434
39.94145
41.30235
42.44089
43.34804
44.04694
44.57709
44.93661
45.11266
45.09237
44.88335
44.49155
43.90972
43.13511
42.14395
40.91996
39.46277
37.77281
35.82769
33.61558
31.12534
28.34711
25.27145
21.88631
)
;
        qro             uniform 0;
    }
}


// ************************************************************************* //
