/*--------------------------------*- C++ -*----------------------------------*\
| =========                 |                                                 |
| \\      /  F ield         | OpenFOAM: The Open Source CFD Toolbox           |
|  \\    /   O peration     | Version:  2506                                  |
|   \\  /    A nd           | Website:  www.openfoam.com                      |
|    \\/     M anipulation  |                                                 |
\*---------------------------------------------------------------------------*/
FoamFile
{
    version     2.0;
    format      ascii;
    arch        "LSB;label=32;scalar=64";
    class       volVectorField;
    location    "3500/air";
    object      U;
}
// * * * * * * * * * * * * * * * * * * * * * * * * * * * * * * * * * * * * * //

dimensions      [0 1 -1 0 0 0 0];

internalField   nonuniform List<vector> 
33752
(
(-0.07881314 -0.07972994 -0.04380087)
(-0.05387207 -0.09616158 -0.03944076)
(-0.04117397 -0.1075188 -0.03605495)
(-0.03312886 -0.1151093 -0.03386192)
(-0.02716643 -0.120113 -0.03238079)
(-0.02246876 -0.1234185 -0.0313526)
(-0.018587 -0.1255841 -0.03062579)
(-0.01526899 -0.126965 -0.03010547)
(-0.01237149 -0.1278024 -0.02972808)
(-0.009805542 -0.1282702 -0.02945469)
(-0.007511061 -0.1284991 -0.02925804)
(-0.005439829 -0.1285906 -0.02912265)
(-0.003547775 -0.1286228 -0.02903789)
(-0.001791686 -0.1286549 -0.02899866)
(-0.0001193115 -0.1287301 -0.0289976)
(0.001529443 -0.1288726 -0.02902957)
(0.003214397 -0.1290763 -0.02909791)
(0.004995021 -0.1293155 -0.02921024)
(0.006919427 -0.1295484 -0.02936954)
(0.009036286 -0.1297149 -0.02958182)
(0.01139348 -0.1297338 -0.02985607)
(0.01404188 -0.129501 -0.03020918)
(0.01704523 -0.1288818 -0.03066619)
(0.02049499 -0.1276979 -0.03126786)
(0.02453838 -0.1257014 -0.03207525)
(0.0294315 -0.1225282 -0.03318672)
(0.03563193 -0.117605 -0.03475336)
(0.04397297 -0.1100183 -0.03704433)
(0.05707867 -0.09854413 -0.04055438)
(0.08278203 -0.08181077 -0.04506321)
(-0.09523593 -0.05481024 -0.0394339)
(-0.0644034 -0.06532743 -0.03350863)
(-0.04777003 -0.07419164 -0.02957949)
(-0.03718699 -0.08075548 -0.02724584)
(-0.02957973 -0.08541773 -0.02575665)
(-0.02381242 -0.08865069 -0.02476932)
(-0.01922533 -0.0908293 -0.02409943)
(-0.01544318 -0.09223379 -0.02363207)
(-0.01225081 -0.09307655 -0.02330069)
(-0.009517862 -0.09352434 -0.02306216)
(-0.00715668 -0.09371128 -0.02289161)
(-0.005100027 -0.09374717 -0.02277249)
(-0.003285789 -0.09372025 -0.02269685)
(-0.001651308 -0.09369784 -0.02265925)
(-0.0001243009 -0.09372282 -0.02265528)
(0.001369781 -0.09381504 -0.0226802)
(0.0029053 -0.09397564 -0.02273754)
(0.004561968 -0.09418416 -0.02283217)
(0.006409661 -0.09439352 -0.02296728)
(0.008515469 -0.09453422 -0.02314671)
(0.01094472 -0.09451556 -0.02337974)
(0.01376888 -0.09422519 -0.02368117)
(0.01707914 -0.0935255 -0.02407755)
(0.02101074 -0.09224583 -0.02460982)
(0.02578346 -0.09016821 -0.02534725)
(0.03178079 -0.08700524 -0.02640351)
(0.03967524 -0.08237099 -0.0279696)
(0.05062777 -0.07577763 -0.03039428)
(0.06777902 -0.06680512 -0.03445677)
(0.09953015 -0.05609162 -0.04056298)
(-0.1065541 -0.04210492 -0.03603829)
(-0.07326152 -0.04867186 -0.02957043)
(-0.05413195 -0.05502055 -0.02520735)
(-0.04152181 -0.06016663 -0.02264868)
(-0.03237874 -0.06404289 -0.02104761)
(-0.02548357 -0.06681538 -0.02001156)
(-0.0200817 -0.06869255 -0.01932089)
(-0.01572209 -0.06986816 -0.01884611)
(-0.01213947 -0.07051283 -0.01850836)
(-0.009168656 -0.07077517 -0.01826282)
(-0.006698284 -0.07078583 -0.01808115)
(-0.0046403 -0.07065833 -0.01794921)
(-0.002913061 -0.07048916 -0.01785904)
(-0.001431217 -0.07035462 -0.01780858)
(-9.842255e-05 -0.07030756 -0.0177943)
(0.001187363 -0.07037478 -0.01781428)
(0.002529759 -0.07055557 -0.01787071)
(0.004034673 -0.07082259 -0.0179678)
(0.005797647 -0.07112149 -0.01810585)
(0.007908326 -0.07137438 -0.01828789)
(0.01045294 -0.07148311 -0.01852048)
(0.01352367 -0.07133166 -0.01881925)
(0.01723722 -0.0707867 -0.01921065)
(0.02176362 -0.06969593 -0.01974166)
(0.02737531 -0.0678847 -0.02048942)
(0.03453226 -0.06515353 -0.0215879)
(0.04400568 -0.06128731 -0.02325832)
(0.05704162 -0.05611133 -0.02590717)
(0.07676216 -0.04968589 -0.03040576)
(0.1110531 -0.04300057 -0.03706513)
(-0.1140892 -0.03404213 -0.03383002)
(-0.07980306 -0.03806091 -0.02722444)
(-0.05927599 -0.04236931 -0.02263823)
(-0.04527986 -0.04611523 -0.01993204)
(-0.03492563 -0.04905298 -0.01823842)
(-0.02704181 -0.05117728 -0.01714064)
(-0.02086483 -0.05257637 -0.01640864)
(-0.01592159 -0.05337071 -0.01589933)
(-0.01192495 -0.05368858 -0.01553034)
(-0.008693698 -0.05365876 -0.01525137)
(-0.006101291 -0.05340555 -0.01503581)
(-0.004045059 -0.05304597 -0.01486925)
(-0.002424037 -0.05268456 -0.01474807)
(-0.001128989 -0.05240767 -0.01467214)
(-3.418707e-05 -0.05227627 -0.0146426)
(0.0009957699 -0.05232249 -0.01465945)
(0.002101293 -0.05254572 -0.01472543)
(0.003420462 -0.05291439 -0.01484076)
(0.005078943 -0.05336628 -0.01500378)
(0.007191271 -0.05381424 -0.01521329)
(0.009863007 -0.05415213 -0.0154742)
(0.01320249 -0.05426111 -0.01579939)
(0.01734129 -0.05401411 -0.01621713)
(0.02246723 -0.0532797 -0.01677597)
(0.02887419 -0.05192587 -0.01756125)
(0.03704623 -0.04982874 -0.01871581)
(0.04776306 -0.04689551 -0.02047718)
(0.06222384 -0.04312821 -0.02327065)
(0.08338486 -0.03877122 -0.02799562)
(0.1187074 -0.03468563 -0.03479205)
(-0.1190257 -0.02805594 -0.03232882)
(-0.08443076 -0.03042194 -0.02571935)
(-0.06313808 -0.0331847 -0.02102419)
(-0.04821807 -0.03570885 -0.01822646)
(-0.03694804 -0.03771986 -0.01645332)
(-0.02824247 -0.03913278 -0.01528899)
(-0.02137425 -0.03996422 -0.01449595)
(-0.01588149 -0.04028137 -0.01392902)
(-0.0114817 -0.04018028 -0.01349961)
(-0.007993534 -0.03977271 -0.0131585)
(-0.005288442 -0.03917966 -0.01287833)
(-0.003255226 -0.03852304 -0.01264999)
(-0.001777559 -0.03791882 -0.01247338)
(-0.0007201241 -0.0374653 -0.01235527)
(7.600975e-05 -0.03723376 -0.01230111)
(0.0007860976 -0.03726245 -0.01231634)
(0.001593468 -0.03755137 -0.01240221)
(0.002674997 -0.03806371 -0.0125555)
(0.00419118 -0.03872769 -0.0127688)
(0.006282473 -0.03944414 -0.01303643)
(0.00907113 -0.04009634 -0.01335721)
(0.01267388 -0.04056028 -0.01374158)
(0.01722574 -0.04071297 -0.01421527)
(0.02291397 -0.04043967 -0.01482948)
(0.03002915 -0.03964198 -0.01567171)
(0.03904314 -0.03824953 -0.01689167)
(0.05069988 -0.03624381 -0.01872943)
(0.06611023 -0.03370803 -0.02161505)
(0.08806265 -0.03091881 -0.0264478)
(0.1237117 -0.02851826 -0.03324842)
(-0.1222541 -0.0233322 -0.03127666)
(-0.08761946 -0.02462214 -0.02471312)
(-0.06588706 -0.02624943 -0.01997276)
(-0.05033383 -0.02777697 -0.01711498)
(-0.03836376 -0.02895798 -0.01527593)
(-0.02897825 -0.02968256 -0.01403987)
(-0.02150141 -0.02992881 -0.01317248)
(-0.01550341 -0.02973208 -0.01252373)
(-0.01072255 -0.02916557 -0.01200594)
(-0.006993514 -0.02833118 -0.01156831)
(-0.004195961 -0.02734958 -0.01118887)
(-0.002219602 -0.02635151 -0.01086327)
(-0.0009355427 -0.02546775 -0.01060111)
(-0.000182005 -0.02481187 -0.01041728)
(0.0002382978 -0.02446801 -0.0103274)
(0.0005473262 -0.02448194 -0.01034142)
(0.0009785162 -0.02485438 -0.01046041)
(0.001755124 -0.02554214 -0.01067468)
(0.003077344 -0.02646113 -0.01097015)
(0.005112746 -0.02749704 -0.01133131)
(0.007996177 -0.02851865 -0.01174933)
(0.01184493 -0.0293936 -0.01222713)
(0.01678531 -0.02999864 -0.01278796)
(0.02298959 -0.03022979 -0.01348115)
(0.03072653 -0.03001095 -0.01439713)
(0.04043658 -0.02930514 -0.01568631)
(0.05281072 -0.02813227 -0.01759021)
(0.06887225 -0.02660261 -0.02053391)
(0.09128022 -0.02496452 -0.025413)
(0.1269775 -0.0236608 -0.03216428)
(-0.1243336 -0.01942506 -0.03052296)
(-0.08974574 -0.0200043 -0.024022)
(-0.06773326 -0.02081086 -0.01926493)
(-0.05171753 -0.02155717 -0.01636792)
(-0.03919154 -0.02204087 -0.01446896)
(-0.02922971 -0.0221506 -0.01315901)
(-0.02121119 -0.02184879 -0.01220213)
(-0.01474618 -0.02115153 -0.0114497)
(-0.009606707 -0.02011937 -0.01081127)
(-0.005654098 -0.01884847 -0.01024006)
(-0.002787874 -0.01746456 -0.009718131)
(-0.000906505 -0.0161082 -0.00925244)
(0.0001261415 -0.01492879 -0.008863915)
(0.0004999658 -0.01405922 -0.008585908)
(0.000456438 -0.0135987 -0.008446293)
(0.0002714951 -0.0135999 -0.008460891)
(0.0002367141 -0.01406554 -0.008627833)
(0.0006315218 -0.01494477 -0.008932303)
(0.001700727 -0.01613909 -0.009348505)
(0.003640528 -0.01751587 -0.009847142)
(0.00659369 -0.01892614 -0.01040511)
(0.01066919 -0.02022643 -0.01101579)
(0.01597431 -0.02128912 -0.01169545)
(0.02265389 -0.02201514 -0.01249231)
(0.0309435 -0.02234203 -0.01349608)
(0.04124219 -0.02225131 -0.01485955)
(0.05418581 -0.02177994 -0.01682175)
(0.0707225 -0.02103887 -0.01980543)
(0.09342147 -0.02023299 -0.02469967)
(0.1290766 -0.0196525 -0.03138752)
(-0.1256204 -0.01608397 -0.02997351)
(-0.09109093 -0.01619458 -0.02353181)
(-0.06887187 -0.01641885 -0.01877169)
(-0.05249114 -0.01657692 -0.01584269)
(-0.03950043 -0.01650656 -0.01388757)
(-0.02903407 -0.01610671 -0.01249669)
(-0.02052195 -0.0153334 -0.01143652)
(-0.01361906 -0.01419356 -0.0105547)
(-0.008137501 -0.01273916 -0.009762085)
(-0.003976262 -0.01106584 -0.009012752)
(-0.001062154 -0.009306215 -0.008296882)
(0.0006896912 -0.007609143 -0.00763216)
(0.001410195 -0.006153652 -0.007071299)
(0.001329746 -0.005081944 -0.006667271)
(0.0007310177 -0.004509907 -0.006460823)
(-4.727402e-05 -0.004500986 -0.006473813)
(-0.0006398196 -0.005058328 -0.006705608)
(-0.0007044477 -0.006120547 -0.00713414)
(5.244399e-05 -0.007578338 -0.007720796)
(0.001859682 -0.009280669 -0.008412569)
(0.004859934 -0.01105602 -0.009162725)
(0.009146434 -0.01275161 -0.009950285)
(0.01479804 -0.01423148 -0.0107846)
(0.02192258 -0.01539768 -0.01171009)
(0.03071447 -0.01619535 -0.01281798)
(0.04152808 -0.01661613 -0.01426148)
(0.05494694 -0.01670237 -0.01628075)
(0.07185873 -0.01655572 -0.01929529)
(0.09477232 -0.01633928 -0.02419339)
(0.1303721 -0.01623524 -0.03081921)
(-0.1263561 -0.01316662 -0.02956528)
(-0.0918682 -0.0129783 -0.02317633)
(-0.0694744 -0.01280842 -0.01841472)
(-0.05278412 -0.01254882 -0.01545725)
(-0.03938774 -0.0120721 -0.01344357)
(-0.02846618 -0.01128815 -0.01196552)
(-0.01949591 -0.01015342 -0.01078557)
(-0.0121761 -0.008668459 -0.009750015)
(-0.006364889 -0.006881239 -0.008766026)
(-0.002004961 -0.004886528 -0.007789051)
(0.0009433823 -0.002810304 -0.006808524)
(0.002527631 -0.0008129555 -0.005873021)
(0.002905511 0.0009170983 -0.005069653)
(0.002304441 0.002194978 -0.004480784)
(0.001060676 0.002881091 -0.004171546)
(-0.0004143951 0.002898828 -0.004180782)
(-0.001654613 0.002243437 -0.004508767)
(-0.002242008 0.0009892912 -0.005118731)
(-0.001836953 -0.0007266166 -0.005947196)
(-0.000193295 -0.002728142 -0.006912826)
(0.002838159 -0.004810355 -0.007923016)
(0.007323708 -0.006822611 -0.008938135)
(0.01330866 -0.008633059 -0.009963865)
(0.02085574 -0.01014324 -0.0110445)
(0.03011345 -0.01130311 -0.0122722)
(0.0413908 -0.01210966 -0.01380421)
(0.05522453 -0.01260571 -0.01588166)
(0.07245422 -0.01288056 -0.0189258)
(0.09554971 -0.01306287 -0.02382469)
(0.1311111 -0.01326091 -0.03039763)
(-0.1267145 -0.01058458 -0.0292591)
(-0.09224462 -0.01022521 -0.02291272)
(-0.06969013 -0.009813927 -0.01814931)
(-0.05272601 -0.009291038 -0.01516167)
(-0.03896622 -0.00855496 -0.01308796)
(-0.02762893 -0.007528232 -0.01151507)
(-0.0182306 -0.006168189 -0.01020279)
(-0.0105145 -0.004473004 -0.008990227)
(-0.00438588 -0.002486385 -0.007779345)
(0.0001920655 -0.0002717663 -0.006503932)
(0.003153981 0.002010515 -0.005193117)
(0.004548846 0.004156216 -0.0039499)
(0.004531714 0.006000054 -0.002876753)
(0.00335589 0.007362615 -0.002083022)
(0.001418761 0.008097749 -0.001661943)
(-0.0008034731 0.008120839 -0.001666528)
(-0.002740277 0.007426593 -0.002099058)
(-0.003905707 0.006096535 -0.002908693)
(-0.003898168 0.004273702 -0.004005008)
(-0.002459066 0.002139296 -0.005278281)
(0.000597143 -0.0001547852 -0.006624228)
(0.005296649 -0.002379265 -0.007934232)
(0.0116019 -0.004388508 -0.00918839)
(0.01955058 -0.006108951 -0.01044707)
(0.02924284 -0.007494549 -0.01180908)
(0.04094367 -0.008545614 -0.01343648)
(0.05514877 -0.009302908 -0.01557558)
(0.07266027 -0.009843627 -0.01865004)
(0.09592361 -0.01026856 -0.0235523)
(0.1314717 -0.01063736 -0.03008225)
(-0.1268243 -0.008277491 -0.0290264)
(-0.09235412 -0.007846905 -0.02271588)
(-0.06964996 -0.007323352 -0.01794739)
(-0.05244157 -0.00667589 -0.01492936)
(-0.03835732 -0.00582526 -0.01279363)
(-0.0266437 -0.004704648 -0.0111234)
(-0.01685241 -0.003275193 -0.009670549)
(-0.008768667 -0.001531801 -0.008266214)
(-0.002327443 0.0004894023 -0.006792433)
(0.002455028 0.002723008 -0.00518607)
(0.005400208 0.004989281 -0.003545818)
(0.006624109 0.00716098 -0.001971994)
(0.006213787 0.009039708 -0.0005962952)
(0.004452378 0.01042404 0.0004226901)
(0.001796902 0.01116017 0.0009488474)
(-0.001207594 0.01118635 0.00094897)
(-0.003866788 0.01049656 0.0004197243)
(-0.005622893 0.009149725 -0.0006093174)
(-0.006013487 0.007295099 -0.002005141)
(-0.004746929 0.00513297 -0.00360871)
(-0.001712265 0.002863155 -0.005286223)
(0.003195054 0.0006199394 -0.00693081)
(0.009811953 -0.001422585 -0.008448178)
(0.01813363 -0.003190096 -0.009901303)
(0.0282249 -0.004645108 -0.01140546)
(0.04030873 -0.005790265 -0.01313241)
(0.05484578 -0.006663166 -0.01533453)
(0.07260944 -0.007328878 -0.01844156)
(0.09603138 -0.007865291 -0.02335041)
(0.1315889 -0.008300124 -0.02984866)
(-0.1267786 -0.006192923 -0.02884605)
(-0.09230621 -0.005775107 -0.02256898)
(-0.06946784 -0.00524762 -0.01779467)
(-0.052048 -0.00459969 -0.01474609)
(-0.03768315 -0.003770153 -0.01255128)
(-0.02564142 -0.002705124 -0.01078624)
(-0.01550287 -0.001369772 -0.009195864)
(-0.007087994 0.0002437535 -0.007596461)
(-0.0003435965 0.002104041 -0.005849326)
(0.004570827 0.004137272 -0.003938697)
(0.00754827 0.006234051 -0.001968662)
(0.008607615 0.008241356 -5.896284e-05)
(0.00780695 0.009949817 0.001581677)
(0.005481253 0.01120778 0.002838099)
(0.002154454 0.01188508 0.003523163)
(-0.001584405 0.01191093 0.003528223)
(-0.004918703 0.01127926 0.002847573)
(-0.00724475 0.01005822 0.00158679)
(-0.008033786 0.008374952 -6.912866e-05)
(-0.006932446 0.006377859 -0.002009186)
(-0.003880706 0.004282888 -0.004018354)
(0.001178825 0.002229468 -0.005974886)
(0.008091263 0.0003564607 -0.007762736)
(0.01674864 -0.00127974 -0.009413927)
(0.02719183 -0.002638959 -0.0110587)
(0.03960952 -0.003727674 -0.01288229)
(0.05443371 -0.004578599 -0.01514607)
(0.07241721 -0.005244433 -0.01828614)
(0.09598603 -0.005782089 -0.02320564)
(0.1315704 -0.006197582 -0.02968323)
(-0.12669 -0.004289138 -0.02873013)
(-0.09219459 -0.00394757 -0.02246721)
(-0.06924088 -0.003504723 -0.01768404)
(-0.05164983 -0.002960462 -0.01460811)
(-0.0370592 -0.002272182 -0.01236088)
(-0.02475198 -0.001398845 -0.01051302)
(-0.01433006 -0.0003139103 -0.008800575)
(-0.005646008 0.0009894217 -0.00703031)
(0.001363645 0.002504457 -0.005041463)
(0.006388047 0.00414363 -0.002863705)
(0.009399095 0.005843312 -0.0005935277)
(0.01029006 0.00745689 0.00157968)
(0.009166114 0.008837907 0.003523607)
(0.006370882 0.009862809 0.005004357)
(0.002466078 0.01041729 0.005823582)
(-0.001912005 0.01043955 0.00583319)
(-0.005827365 0.009924021 0.005025806)
(-0.008626568 0.00893051 0.003545445)
(-0.009743926 0.007570563 0.001588482)
(-0.008816317 0.005967532 -0.000613346)
(-0.00573296 0.004266411 -0.002924606)
(-0.0005636572 0.002612013 -0.005152255)
(0.006615149 0.001087996 -0.007183791)
(0.01554429 -0.0002341466 -0.009009055)
(0.02627524 -0.0013409 -0.01077899)
(0.03896284 -0.002234876 -0.01268839)
(0.05401812 -0.002941986 -0.01500748)
(0.07218065 -0.003501 -0.01818167)
(0.09587898 -0.003950619 -0.02311662)
(0.1315102 -0.004284481 -0.02958701)
(-0.1265791 -0.002521126 -0.02864833)
(-0.09208186 -0.002301074 -0.02240179)
(-0.06904502 -0.002008235 -0.01761271)
(-0.05133299 -0.00164819 -0.0145155)
(-0.03658312 -0.001195027 -0.01222887)
(-0.02408803 -0.0006236869 -0.01031837)
(-0.01346452 8.335792e-05 -0.008514744)
(-0.004588724 0.0009308079 -0.006619248)
(0.002619694 0.001928202 -0.004448554)
(0.007723381 0.002992557 -0.002069257)
(0.01075301 0.004103631 0.0004216444)
(0.01152081 0.005148925 0.002830799)
(0.01016716 0.006055455 0.004997403)
(0.00702647 0.006728918 0.006655566)
(0.002697026 0.007094692 0.007580963)
(-0.0021551 0.007110151 0.007594301)
(-0.006497212 0.0067714 0.006686484)
(-0.009644451 0.006119557 0.005032643)
(-0.01099374 0.005227339 0.002854707)
(-0.01019579 0.004190384 0.0004189046)
(-0.007093422 0.003076543 -0.002116259)
(-0.001844416 0.002001328 -0.004547795)
(0.005534263 0.001001673 -0.00676497)
(0.01465428 0.0001397409 -0.008718645)
(0.02558901 -0.0005831507 -0.01058293)
(0.03846872 -0.001169355 -0.01255762)
(0.05368802 -0.001635524 -0.01492012)
(0.07197888 -0.002005284 -0.01811903)
(0.09577414 -0.002301121 -0.02306494)
(0.1314378 -0.002513473 -0.02953223)
(-0.1265125 -0.0008429846 -0.02861411)
(-0.09201714 -0.0007687726 -0.02237328)
(-0.06893396 -0.0006671297 -0.01757999)
(-0.05115885 -0.0005413291 -0.01447059)
(-0.03632648 -0.0003833486 -0.01216174)
(-0.02373411 -0.0001842672 -0.01021683)
(-0.01300658 6.125324e-05 -0.008363792)
(-0.004026545 0.0003567466 -0.006402276)
(0.00328749 0.0007087879 -0.004134343)
(0.008432169 0.001081895 -0.001646728)
(0.01146107 0.001474335 0.0009453245)
(0.01217125 0.001844689 0.003509854)
(0.01069836 0.002168323 0.005807589)
(0.007375292 0.002410508 0.007570239)
(0.002820562 0.002543018 0.008559159)
(-0.002284748 0.002549463 0.008574668)
(-0.006853185 0.002428183 0.007606728)
(-0.01018416 0.002195144 0.00585062)
(-0.0116537 0.001877566 0.003542308)
(-0.01091612 0.00151102 0.0009513004)
(-0.007816182 0.001117693 -0.001685734)
(-0.002523691 0.0007403645 -0.004226531)
(0.004960516 0.0003885854 -0.006544878)
(0.01418241 8.618531e-05 -0.008565138)
(0.02522347 -0.0001659199 -0.01048057)
(0.03820247 -0.0003712091 -0.01249133)
(0.05350701 -0.0005349482 -0.01487774)
(0.07186533 -0.0006645685 -0.01809084)
(0.09571451 -0.000766963 -0.02304353)
(0.1313895 -0.0008367147 -0.02951129)
(-0.1265138 0.0008099796 -0.02861435)
(-0.0920179 0.0007320016 -0.02237378)
(-0.06893403 0.0006270699 -0.01758053)
(-0.05115827 0.0004989755 -0.01447116)
(-0.03632531 0.000339861 -0.01216228)
(-0.02373242 0.0001408345 -0.01021733)
(-0.01300451 -0.0001035126 -0.008364095)
(-0.004024063 -0.0003971183 -0.0064025)
(0.003290289 -0.0007462231 -0.004134499)
(0.008434941 -0.001115976 -0.001646833)
(0.01146378 -0.001504787 0.0009452846)
(0.01217376 -0.001871625 0.003509784)
(0.01070062 -0.002191958 0.005807541)
(0.007377275 -0.002431028 0.00757022)
(0.002822214 -0.002560646 0.008559195)
(-0.002283444 -0.00256469 0.008574769)
(-0.006852351 -0.002441724 0.007606885)
(-0.01018381 -0.00220761 0.005850801)
(-0.01165386 -0.001889769 0.003542466)
(-0.0109168 -0.001523879 0.0009513972)
(-0.007817363 -0.001132157 -0.001685742)
(-0.002525399 -0.0007573747 -0.004226705)
(0.004958437 -0.0004091912 -0.006545343)
(0.01418015 -0.0001110793 -0.008565989)
(0.02522133 0.0001365767 -0.01048191)
(0.03820081 0.0003380494 -0.01249304)
(0.0535063 0.0004993395 -0.01487988)
(0.07186618 0.000629152 -0.01809347)
(0.09571788 0.0007358845 -0.02304692)
(0.1313969 0.0008151904 -0.02951629)
(-0.1265817 0.002487788 -0.02864835)
(-0.09208388 0.00226404 -0.02240309)
(-0.06904519 0.001967836 -0.01761428)
(-0.05133125 0.001605526 -0.01451711)
(-0.03657959 0.001151278 -0.01223046)
(-0.02408287 0.0005799793 -0.01031985)
(-0.01345811 -0.0001260068 -0.008515963)
(-0.004581444 -0.0009711718 -0.006620026)
(0.002628038 -0.001965629 -0.004449012)
(0.007731763 -0.003026422 -0.002069428)
(0.01076115 -0.004133744 0.0004217638)
(0.01152827 -0.005175498 0.002830812)
(0.01017386 -0.006078703 0.004997395)
(0.007032333 -0.006749023 0.006655657)
(0.002701916 -0.007111893 0.007581181)
(-0.002151275 -0.007124929 0.00759471)
(-0.00649475 -0.006784442 0.006687033)
(-0.009643397 -0.006131474 0.005033239)
(-0.01099418 -0.005238907 0.002855232)
(-0.01019772 -0.004202452 0.0004192541)
(-0.007096809 -0.003089954 -0.00211625)
(-0.00184936 -0.002016983 -0.004548331)
(0.005528198 -0.001020515 -0.006766502)
(0.01464756 -0.000162543 -0.008721638)
(0.02558267 0.0005562394 -0.01058759)
(0.03846375 0.001138871 -0.01256355)
(0.05368579 0.001602515 -0.0149276)
(0.07198139 0.001972293 -0.01812811)
(0.09578446 0.002272294 -0.02307617)
(0.1314619 0.00249395 -0.02954856)
(-0.1266926 0.00425667 -0.02872916)
(-0.09219783 0.003909978 -0.02246924)
(-0.06924113 0.00346362 -0.01768663)
(-0.05164685 0.002917223 -0.01461075)
(-0.03705332 0.002228042 -0.01236343)
(-0.02474364 0.001354903 -0.01051542)
(-0.01431947 0.0002711592 -0.00880258)
(-0.005633585 -0.001029712 -0.007031768)
(0.00137751 -0.002541842 -0.005042231)
(0.00640199 -0.004177422 -0.002863782)
(0.009412561 -0.005873186 -0.000592643)
(0.01030234 -0.007483202 0.0015801)
(0.009177153 -0.008860791 0.003523848)
(0.006380577 -0.009882427 0.005004682)
(0.002474174 -0.01043392 0.005824128)
(-0.001905659 -0.01045369 0.005834021)
(-0.005823238 -0.009936308 0.00502684)
(-0.008624694 -0.00894156 0.003546526)
(-0.009744426 -0.007581063 0.001589439)
(-0.008819154 -0.005978203 -0.0006126183)
(-0.005738026 -0.004277916 -0.002924531)
(-0.0005711901 -0.002625061 -0.005153117)
(0.006605735 -0.001103125 -0.007186455)
(0.01553384 0.0002163748 -0.009014627)
(0.02626527 0.001320377 -0.01078788)
(0.03895479 0.002211841 -0.01269994)
(0.05401424 0.002917028 -0.01502279)
(0.07218449 0.003475639 -0.01819977)
(0.09589587 0.003927359 -0.02313603)
(0.1315525 0.004267052 -0.02961564)
(-0.1267946 0.006160166 -0.0288535)
(-0.09231263 0.005736746 -0.02257432)
(-0.06946807 0.005205776 -0.01779902)
(-0.05204352 0.00455593 -0.01475)
(-0.03767465 0.003725758 -0.01255495)
(-0.02562949 0.002661238 -0.01078966)
(-0.01548801 0.001327435 -0.009198938)
(-0.007070695 -0.0002839186 -0.007598788)
(-0.0003246098 -0.002141136 -0.005850582)
(0.004590038 -0.004171163 -0.003938652)
(0.007566895 -0.006264111 -0.001966976)
(0.008624559 -0.008267606 -5.788371e-05)
(0.00782228 -0.00997234 0.001582312)
(0.005494749 -0.01122681 0.002838794)
(0.002165734 -0.01190101 0.003524123)
(-0.001575583 -0.01192426 0.003529539)
(-0.004912863 -0.01129062 0.002849117)
(-0.007241894 -0.0100682 0.001588394)
(-0.008034006 -0.008384136 -6.77253e-05)
(-0.006935572 -0.00638674 -0.002008235)
(-0.003886592 -0.004291968 -0.004018143)
(0.001170032 -0.002239162 -0.005975743)
(0.008080289 -0.0003667836 -0.007765499)
(0.01673649 0.001268821 -0.009419657)
(0.02718022 0.002627351 -0.01106787)
(0.03960016 0.003715325 -0.01289431)
(0.05442909 0.004565651 -0.01516215)
(0.07242106 0.005230832 -0.01830548)
(0.0960046 0.005767544 -0.02322872)
(0.131618 0.006182007 -0.02971519)
(-0.1268436 0.008242811 -0.02903601)
(-0.09236203 0.007807699 -0.02272318)
(-0.06964983 0.007280963 -0.01795335)
(-0.05243537 0.006631853 -0.01493467)
(-0.03834607 0.005780912 -0.01279852)
(-0.02662819 0.004661082 -0.01112796)
(-0.01683338 0.003233312 -0.009674687)
(-0.008746903 0.001492251 -0.008269759)
(-0.002303759 -0.0005263491 -0.006794709)
(0.002478675 -0.002756119 -0.005186909)
(0.005423689 -0.005018865 -0.003545507)
(0.006645789 -0.007186647 -0.001971415)
(0.00623348 -0.009061518 -0.0005952223)
(0.0044697 -0.01044222 0.0004238919)
(0.001811336 -0.01117521 0.000950303)
(-0.00119632 -0.01119876 0.0009507804)
(-0.003859185 -0.01050684 0.000421843)
(-0.005618871 -0.00915851 -0.0006070339)
(-0.006012968 -0.007302775 -0.002003381)
(-0.004749728 -0.005139961 -0.003607584)
(-0.00171824 -0.002869884 -0.005285814)
(0.003186372 -0.0006264138 -0.006931392)
(0.009801203 0.001416527 -0.008450063)
(0.01812186 0.003184634 -0.009904981)
(0.02821376 0.004640262 -0.01141114)
(0.04029998 0.005785721 -0.01313994)
(0.0548417 0.006658712 -0.01534435)
(0.07261301 0.007323599 -0.01845389)
(0.09604704 0.007857692 -0.0233661)
(0.1316243 0.008287584 -0.02987073)
(-0.1267363 0.01054914 -0.02927079)
(-0.09225327 0.01018557 -0.02292201)
(-0.06968919 0.00977142 -0.01815703)
(-0.0527178 0.009247251 -0.0151685)
(-0.03895203 0.008511242 -0.01309421)
(-0.02760983 0.007485664 -0.01152082)
(-0.01820755 0.006127566 -0.01020803)
(-0.01048853 0.004434885 -0.008994793)
(-0.00435817 0.002451168 -0.00778299)
(0.0002209883 0.0002397389 -0.006505919)
(0.003181921 -0.002039028 -0.005193976)
(0.004574859 -0.004180322 -0.00394993)
(0.004555463 -0.006020323 -0.002876052)
(0.003376745 -0.007379467 -0.002081658)
(0.001436162 -0.00811159 -0.001660057)
(-0.0007898361 -0.008132095 -0.001664266)
(-0.002730824 -0.007435665 -0.002096698)
(-0.0039003 -0.006103902 -0.002906469)
(-0.003896637 -0.004279858 -0.004003212)
(-0.00246116 -0.002144611 -0.005277067)
(0.0005917518 0.0001502048 -0.006623661)
(0.005288682 0.002375452 -0.007934464)
(0.011592 0.004385453 -0.009189516)
(0.01953984 0.006106777 -0.01044925)
(0.0292327 0.00749312 -0.01181248)
(0.0409358 0.008544572 -0.01344115)
(0.05514514 0.009301749 -0.01558186)
(0.07266323 0.009841495 -0.01865826)
(0.09593624 0.01026402 -0.02356327)
(0.1314986 0.01062855 -0.03009747)
(-0.1263805 0.0131314 -0.02957951)
(-0.09187723 0.01293897 -0.02318785)
(-0.06947229 0.01276655 -0.01842435)
(-0.05277361 0.01250607 -0.01546577)
(-0.03937043 0.01202986 -0.01345128)
(-0.02844342 0.01124748 -0.01197255)
(-0.0194689 0.01011506 -0.01079189)
(-0.01214604 0.008632887 -0.009755557)
(-0.006333065 0.006848789 -0.008770598)
(-0.00197254 0.004857491 -0.007792413)
(0.0009755625 0.002784324 -0.006810362)
(0.002557946 0.0007910306 -0.005873647)
(0.00293301 -0.0009356299 -0.005069281)
(0.002328558 -0.002210316 -0.004479637)
(0.001080806 -0.002893573 -0.004169797)
(-0.0003985846 -0.002908792 -0.004178681)
(-0.001643419 -0.002251163 -0.004506559)
(-0.00223521 -0.0009952259 -0.005116646)
(-0.001834337 0.0007220636 -0.005945415)
(-0.0001944021 0.002724647 -0.006911497)
(0.002833819 0.004807839 -0.007922282)
(0.007316682 0.006820933 -0.008938037)
(0.01329976 0.008632182 -0.009964421)
(0.02084599 0.01014307 -0.01104583)
(0.03010421 0.01130345 -0.01227441)
(0.0413836 0.01211008 -0.01380752)
(0.05522119 0.01260576 -0.01588626)
(0.07245666 0.01287953 -0.018932)
(0.09556029 0.01305988 -0.02383292)
(0.1311332 0.01325485 -0.03040896)
(-0.1256471 0.01604971 -0.02999057)
(-0.09109997 0.0161565 -0.02354571)
(-0.06886823 0.01637861 -0.01878341)
(-0.05247806 0.01653626 -0.01585301)
(-0.03947986 0.01646688 -0.01389683)
(-0.02900762 0.01606903 -0.01250501)
(-0.02049106 0.01529838 -0.01144393)
(-0.01358511 0.01416162 -0.01056112)
(-0.008101867 0.0127105 -0.009767444)
(-0.003940318 0.01104062 -0.009016875)
(-0.001026437 0.009284402 -0.008299593)
(0.0007235102 0.007590507 -0.007633758)
(0.001440369 0.006138382 -0.007071599)
(0.001356382 0.005069538 -0.006666587)
(0.000753443 0.004500027 -0.006459455)
(-2.942935e-05 0.004493339 -0.006472031)
(-0.0006268219 0.005052672 -0.006703691)
(-0.0006961453 0.006116539 -0.007132232)
(5.638524e-05 0.007575702 -0.007719081)
(0.001859699 0.009279164 -0.008411176)
(0.004856573 0.0110554 -0.009161792)
(0.009140331 0.01275176 -0.00994983)
(0.01479 0.01423226 -0.0107847)
(0.02191363 0.0153989 -0.01171082)
(0.03070584 0.01619671 -0.01281954)
(0.04152129 0.01661725 -0.01426402)
(0.05494369 0.01670276 -0.01628452)
(0.0718608 0.01655493 -0.01930028)
(0.09478157 0.01633677 -0.02419986)
(0.130391 0.01623091 -0.03082809)
(-0.1243621 0.01939271 -0.03054293)
(-0.08975433 0.01996857 -0.02403839)
(-0.06772779 0.02077351 -0.01927881)
(-0.05170171 0.0215199 -0.01638015)
(-0.03916765 0.02200504 -0.01447983)
(-0.02919963 0.02211714 -0.01316866)
(-0.0211766 0.02181831 -0.01221058)
(-0.01470862 0.02112431 -0.01145695)
(-0.00956764 0.02009551 -0.01081727)
(-0.005614877 0.01882798 -0.01024478)
(-0.002749574 0.01744741 -0.009721519)
(-0.0008704378 0.01609362 -0.009254603)
(0.0001588176 0.01491712 -0.008864691)
(0.0005286046 0.01405027 -0.008585573)
(0.0004806398 0.01359195 -0.008445178)
(0.0002908965 0.0135951 -0.008459316)
(0.0002511693 0.0140624 -0.008626)
(0.0006411481 0.01494302 -0.008930439)
(0.001705836 0.01613853 -0.009346755)
(0.003641574 0.01751627 -0.00984565)
(0.006591228 0.0189273 -0.01040393)
(0.01066387 0.02022816 -0.01101502)
(0.01596695 0.02129125 -0.01169513)
(0.02264545 0.0220174 -0.01249263)
(0.0309352 0.02234412 -0.01349718)
(0.04123545 0.02225283 -0.01486173)
(0.05418233 0.02178051 -0.01682517)
(0.070724 0.02103805 -0.01981033)
(0.09343006 0.02023065 -0.02470626)
(0.1290953 0.01964915 -0.03139647)
(-0.1222837 0.0233028 -0.03129952)
(-0.08762713 0.02459012 -0.02473197)
(-0.06587947 0.02621647 -0.01998886)
(-0.05031519 0.02774466 -0.01712916)
(-0.03833663 0.02892753 -0.01528847)
(-0.02894478 0.02965478 -0.01405086)
(-0.0214635 0.02990416 -0.01318196)
(-0.01546274 0.02971073 -0.01253174)
(-0.01068066 0.02914751 -0.0120125)
(-0.006951801 0.02831626 -0.01157345)
(-0.004155636 0.0273376 -0.01119265)
(-0.002181811 0.02634204 -0.01086575)
(-0.000901277 0.0254607 -0.01060239)
(-0.0001519816 0.02480694 -0.01041735)
(0.0002636418 0.02446493 -0.01032654)
(0.0005678109 0.02448038 -0.01034001)
(0.00099399 0.02485411 -0.01045871)
(0.001765702 0.02554295 -0.01067286)
(0.003083333 0.02646282 -0.01096838)
(0.00511458 0.02749943 -0.01132968)
(0.00799439 0.02852153 -0.01174796)
(0.01184017 0.02939681 -0.01222607)
(0.01677836 0.03000195 -0.01278738)
(0.02298142 0.03023297 -0.01348117)
(0.03071828 0.03001368 -0.01439804)
(0.04042968 0.02930711 -0.01568829)
(0.0528068 0.0281331 -0.01759363)
(0.06887315 0.02660205 -0.02053891)
(0.09128832 0.02496252 -0.02542011)
(0.1269964 0.02365803 -0.03217376)
(-0.1190554 0.0280307 -0.03235441)
(-0.08443695 0.03039514 -0.02574061)
(-0.06312814 0.03315791 -0.02104247)
(-0.04819665 0.03568335 -0.01824261)
(-0.03691798 0.03769659 -0.01646755)
(-0.02820611 0.03911232 -0.01530137)
(-0.02133364 0.03994685 -0.0145065)
(-0.01583843 0.04026715 -0.01393782)
(-0.01143778 0.04016908 -0.01350671)
(-0.007950187 0.0397643 -0.01316402)
(-0.00524687 0.03917375 -0.01288237)
(-0.003216489 0.03851926 -0.01265271)
(-0.001742528 0.03791691 -0.01247488)
(-0.0006894772 0.037465 -0.01235572)