/*--------------------------------*- C++ -*----------------------------------*\
| =========                 |                                                 |
| \\      /  F ield         | OpenFOAM: The Open Source CFD Toolbox           |
|  \\    /   O peration     | Version:  2506                                  |
|   \\  /    A nd           | Website:  www.openfoam.com                      |
|    \\/     M anipulation  |                                                 |
\*---------------------------------------------------------------------------*/
FoamFile
{
    version     2.0;
    format      ascii;
    arch        "LSB;label=32;scalar=64";
    class       volScalarField;
    location    "4000/air";
    object      alphat;
}
// * * * * * * * * * * * * * * * * * * * * * * * * * * * * * * * * * * * * * //

dimensions      [1 -1 -1 0 0 0 0];

internalField   nonuniform List<scalar> 
33752
(
0.009555603
0.009514248
0.009477373
0.009448962
0.00942601
0.00940668
0.009389924
0.009375106
0.009361901
0.009350211
0.009340112
0.009331792
0.009325498
0.009321478
0.009319933
0.009321001
0.009324664
0.009330789
0.009339177
0.00934957
0.009361713
0.009375404
0.009390551
0.00940723
0.009425748
0.009446718
0.009471174
0.009500954
0.009539095
0.009581531
0.009514036
0.009449746
0.009399697
0.009364529
0.009338029
0.009316758
0.009298816
0.009283136
0.009269191
0.009256804
0.009246033
0.009237087
0.009230249
0.009225806
0.009223995
0.009225001
0.009228803
0.009235222
0.009244026
0.009254921
0.009267614
0.009281886
0.009297663
0.009315105
0.009334726
0.009357579
0.009385567
0.009422152
0.009473621
0.009539267
0.009476842
0.009399377
0.009337411
0.00929405
0.009262134
0.009237164
0.009216484
0.009198565
0.009182636
0.009168415
0.00915595
0.009145492
0.009137401
0.009132043
0.009129723
0.009130666
0.009134853
0.009142065
0.009152003
0.009164293
0.00917857
0.009194572
0.009212239
0.009231839
0.009254135
0.009280651
0.009314056
0.009358889
0.009422396
0.00950137
0.009448002
0.009363795
0.009293646
0.00924326
0.009205712
0.009176225
0.009151759
0.009130481
0.009111433
0.009094272
0.009079068
0.00906617
0.009056063
0.009049252
0.009046149
0.009047036
0.009051899
0.009060459
0.00907231
0.009086945
0.009103871
0.009122732
0.009143445
0.009166348
0.009192389
0.009223404
0.00926245
0.00931435
0.009386115
0.009471912
0.009424518
0.009336791
0.009261246
0.009205236
0.009162327
0.009127881
0.009098795
0.009073111
0.009049792
0.009028493
0.009009377
0.008992958
0.008979931
0.008971014
0.008966789
0.008967626
0.008973512
0.008984084
0.008998765
0.009016838
0.0090376
0.009060534
0.009085465
0.009112732
0.009143367
0.00917933
0.009223745
0.009281293
0.009358499
0.009447861
0.009404565
0.009314937
0.009235723
0.009175212
0.00912735
0.009087737
0.00905337
0.009022316
0.008993565
0.00896686
0.008942537
0.008921368
0.008904366
0.008892567
0.008886814
0.008887602
0.008894925
0.00890829
0.008926863
0.008949611
0.008975516
0.0090038
0.009034121
0.009066729
0.009102626
0.009143748
0.009193118
0.009255183
0.009336085
0.009427375
0.009387109
0.009296344
0.009214433
0.00915016
0.009097692
0.009052803
0.009012618
0.008975302
0.008939964
0.008906524
0.008875586
0.008848291
0.008826102
0.008810518
0.008802753
0.008803496
0.00881274
0.008829805
0.008853487
0.00888229
0.008914751
0.008949725
0.008986599
0.009025444
0.009067145
0.009113536
0.009167513
0.00923335
0.009316971
0.009409419
0.00937153
0.00927996
0.009195857
0.009128257
0.009071405
0.009021159
0.008974717
0.008930344
0.008887311
0.008845803
0.008806789
0.008771891
0.008743257
0.008722886
0.008712498
0.0087132
0.008724982
0.008746747
0.008776795
0.008813136
0.008853618
0.00889662
0.00894116
0.008987044
0.009034989
0.009086733
0.009145097
0.009214271
0.009300102
0.009393375
0.009357511
0.009265265
0.009179233
0.009108557
0.009047462
0.008991805
0.00893879
0.008886729
0.008835061
0.008784305
0.008735874
0.008692055
0.008655514
0.008629095
0.008615364
0.008616028
0.008631074
0.008658807
0.008696681
0.008741873
0.008791725
0.008843938
0.008897089
0.008950645
0.009005156
0.00906231
0.009124922
0.009197186
0.009284968
0.009378941
0.009344957
0.009252089
0.00916429
0.009090721
0.009025526
0.008964491
0.008904763
0.008844649
0.008783744
0.008722839
0.008664285
0.008611012
0.008565714
0.008532403
0.008514793
0.008515414
0.008534254
0.008568808
0.008615369
0.008669948
0.008729881
0.008792215
0.008854583
0.00891618
0.0089774
0.009039935
0.009106658
0.009181834
0.009271414
0.009366047
0.009333927
0.009240491
0.009151076
0.009074827
0.009005764
0.008939558
0.008873246
0.008805084
0.008734783
0.008663772
0.008595091
0.00853018
0.008473741
0.008433263
0.008414057
0.008414602
0.008434889
0.008476621
0.008534283
0.008600451
0.008670453
0.008742879
0.00881463
0.008884269
0.008952073
0.009019787
0.009090394
0.00916828
0.009259525
0.009354801
0.009324539
0.009230677
0.009139848
0.009061223
0.008988689
0.008917777
0.008845379
0.00876965
0.008690468
0.008610029
0.008529716
0.00845206
0.008392735
0.008350754
0.008328468
0.008328965
0.008352237
0.008395248
0.008455913
0.008534815
0.008616404
0.008698234
0.008778865
0.008856069
0.008929965
0.009002396
0.009076498
0.009156806
0.009249551
0.009345446
0.009317309
0.009222981
0.009130975
0.009050397
0.008974997
0.008900157
0.008822618
0.008740491
0.008653453
0.008564283
0.008472853
0.008392356
0.008327654
0.008279636
0.008253872
0.008254336
0.008281018
0.008330001
0.008395761
0.00847772
0.008570425
0.008660953
0.008749446
0.008833056
0.008912105
0.008988481
0.009065483
0.009147815
0.009241869
0.009338359
0.009312272
0.009217647
0.009124815
0.00904285
0.008965398
0.008887727
0.00880645
0.008719589
0.008626553
0.008530521
0.00843204
0.008350028
0.008279308
0.008226287
0.008197662
0.008198106
0.008227603
0.008281548
0.008353292
0.008436485
0.008536514
0.008633875
0.008728371
0.008816727
0.00889953
0.008978755
0.009057842
0.009141607
0.009236559
0.009333474
0.009309732
0.009214931
0.009121668
0.009038984
0.008960464
0.008881316
0.00879808
0.008708642
0.008612313
0.00851245
0.008412452
0.008327403
0.008253237
0.008197372
0.008167068
0.008167507
0.008198664
0.008255433
0.00833061
0.008416822
0.00851837
0.008619547
0.008717335
0.008808264
0.008893032
0.00897374
0.009053904
0.009138408
0.009233827
0.009330984
0.00930981
0.009215017
0.009121759
0.009039078
0.008960561
0.008881415
0.008798181
0.008708748
0.008612424
0.008512571
0.00841258
0.008327541
0.008253386
0.00819753
0.008167236
0.008167681
0.008198839
0.008255604
0.008330773
0.008416972
0.00851851
0.008619667
0.008717434
0.008808348
0.008893101
0.008973797
0.009053951
0.009138449
0.009233869
0.009331036
0.009312499
0.009217896
0.00912508
0.009043126
0.008965681
0.008888018
0.008806752
0.008719902
0.008626884
0.00853088
0.008432419
0.008350437
0.008279746
0.008226755
0.008198154
0.008198614
0.008228113
0.008282046
0.008353765
0.008436924
0.00853692
0.00863422
0.008728658
0.00881697
0.008899737
0.008978929
0.00905799
0.009141737
0.009236683
0.009333629
0.00931772
0.009223382
0.009131399
0.009050839
0.008975452
0.008900626
0.008823104
0.008741
0.008653992
0.008564862
0.008473485
0.008393027
0.008328373
0.0082804
0.008254672
0.008255158
0.008281842
0.008330804
0.008396524
0.008478451
0.008571062
0.00866149
0.008749895
0.008833437
0.008912434
0.008988759
0.009065725
0.009148023
0.009242015
0.009338574
0.009325055
0.009231212
0.00914041
0.009061808
0.008989295
0.008918404
0.008846031
0.008770338
0.008691197
0.008610805
0.008530563
0.008453
0.008393716
0.008351791
0.00832955
0.008330073
0.008353342
0.008396324
0.008456975
0.008535764
0.008617225
0.008698917
0.008779424
0.008856529
0.008930339
0.009002688
0.009076726
0.009156984
0.009249702
0.009345639
0.009334515
0.009241116
0.00915174
0.009075526
0.009006494
0.008940319
0.008874042
0.008805925
0.008735681
0.008664732
0.008596131
0.008531327
0.008474987
0.008434542
0.008415385
0.008415955
0.008436234
0.008477968
0.008535528
0.008601557
0.008671398
0.008743654
0.008815248
0.008884742
0.008952409
0.009019993
0.009090491
0.009168294
0.009259496
0.009354787
0.009345577
0.009252763
0.009165019
0.0090915
0.00902635
0.00896536
0.008905679
0.008845621
0.008784783
0.008723962
0.008665493
0.008612322
0.008567132
0.008533911
0.008516365
0.008517009
0.008535819
0.008570296
0.008616732
0.008671151
0.008730896
0.008793038
0.008855215
0.008916624
0.008977659
0.009040019
0.009106591
0.009181651
0.009271162
0.009365786
0.009358127
0.009265949
0.00917999
0.009109381
0.009048349
0.008992754
0.008939803
0.00888781
0.008836219
0.008785552
0.008737221
0.008693503
0.008657061
0.008630726
0.008617049
0.008617727
0.008632731
0.008660371
0.008698105
0.008743119
0.008792771
0.008844769
0.008897696
0.008951022
0.009005305
0.009062243
0.009124666
0.00919678
0.009284465
0.00937841
0.009372107
0.00928062
0.009196606
0.009129093
0.009072324
0.009022162
0.008975804
0.008931516
0.008888572
0.008847158
0.008808244
0.008773449
0.008744902
0.008724603
0.008714255
0.008714954
0.008726683
0.008748344
0.008778241
0.008814395
0.008854661
0.008897422
0.008941704
0.008987318
0.009034993
0.009086481
0.009144618
0.009213609
0.009299317
0.009392546
0.009387617
0.009296948
0.009215143
0.009150977
0.009098615
0.009053834
0.009013755
0.008976545
0.008941311
0.008907975
0.008877138
0.008849939
0.008827832
0.008812305
0.008804563
0.00880529
0.008814467
0.008831417
0.00885494
0.008883542
0.008915764
0.008950467
0.008987046
0.009025582
0.009066972
0.009113068
0.009166783
0.009232408
0.009315887
0.009408279
0.009404979
0.009315461
0.00923637
0.009175984
0.009128252
0.009088771
0.009054535
0.00902361
0.008994983
0.008968394
0.008944178
0.008923102
0.008906173
0.008894421
0.008888677
0.008889432
0.008896675
0.008909912
0.00892831
0.008950835
0.008976475
0.009004458
0.009034448
0.009066707
0.009102255
0.009143045
0.009192118
0.009253943
0.009334684
0.009425909
0.009424827
0.00933722
0.009261813
0.009205946
0.009163186
0.009128896
0.009099966
0.009074435
0.00905126
0.009030092
0.009011092
0.008994767
0.008981808
0.008972927
0.008968698
0.008969486
0.008975277
0.008985704
0.00900019
0.009018018
0.009038489
0.00906109
0.009085658
0.009112542
0.009142791
0.009178387
0.009222471
0.009279752
0.009356776
0.009446062
0.009448203
0.009364125
0.009294123
0.009243894
0.009206514
0.009177203
0.009152916
0.009131812
0.009112929
0.009095914
0.009080836
0.009068034
0.009057993
0.00905121
0.009048091
0.009048916
0.009053668
0.009062065
0.009073701
0.009088069
0.009104679
0.009123182
0.009143504
0.009165994
0.009191619
0.009222234
0.00926092
0.009312524
0.009384086
0.009469797
0.009476941
0.009399607
0.009337793
0.009294599
0.009262865
0.009238089
0.009217607
0.009199883
0.009184135
0.009170075
0.009157744
0.009147388
0.009139361
0.009134026
0.009131681
0.00913255
0.009136613
0.009143647
0.009153353
0.009165359
0.009179302
0.009194925
0.009212179
0.009231344
0.009253198
0.009279288
0.009312307
0.00935682
0.009420103
0.009498977
0.009514043
0.009449877
0.009399979
0.009364983
0.009338676
0.009317614
0.009299887
0.009284419
0.00927067
0.009258457
0.009247829
0.009238991
0.009232218
0.009227796
0.009225957
0.009226882
0.009230551
0.009236782
0.009245344
0.009255942
0.009268289
0.009282169
0.009297519
0.009314511
0.009333674
0.009356083
0.009383665
0.00941991
0.009471134
0.009536665
0.009555536
0.009514284
0.009477553
0.009449318
0.00942657
0.009407462
0.009390936
0.009376343
0.009363348
0.009351843
0.009341897
0.009333691
0.009327468
0.009323471
0.009321898
0.009322884
0.009326411
0.009332345
0.009340486
0.009350579
0.00936237
0.009375664
0.009390378
0.0094066
0.009424653
0.009445171
0.009469211
0.009498638
0.009536518
0.009578817
0.08955071
0.08969555
0.08973039
0.0896843
0.08959611
0.08948672
0.08936707
0.08924352
0.08912077
0.08900331
0.0888959
0.08880362
0.08873143
0.08868376
0.0886639
0.08867352
0.08871261
0.08877947
0.08887072
0.08898189
0.08910788
0.08924349
0.08938371
0.08952378
0.08965863
0.08978144
0.08988074
0.08993493
0.0899043
0.08975909
0.08969487
0.08989762
0.0899607
0.08992175
0.08983017
0.08971232
0.08958184
0.08944637
0.08931134
0.08918176
0.08906298
0.08896064
0.0888803
0.08882692
0.08880419
0.08881388
0.08885601
0.08892874
0.08902831
0.08914971
0.08928726
0.08943516
0.08958784
0.08973999
0.08988581
0.09001721
0.09011999
0.09016708
0.09010813
0.08990471
0.08972783
0.08995881
0.09003884
0.09000158
0.08990089
0.0897671
0.08961645
0.08945826
0.08929915
0.0891453
0.08900329
0.08888012
0.08878269
0.08871713
0.08868804
0.08869766
0.08874602
0.0888308
0.08894735
0.08908948
0.08925018
0.08942229
0.089599
0.08977384
0.0899398
0.09008711
0.09019899
0.0902444
0.09016852
0.08993678
0.08967878
0.08991687
0.0899986
0.08995417
0.08983786
0.08968112
0.08950166
0.08931027
0.08911517
0.08892432
0.08874639
0.08859062
0.0884662
0.08838129
0.08834199
0.08835144
0.08840964
0.08851343
0.08865665
0.08883109
0.08902745
0.08923633
0.08944883
0.08965667
0.08985127
0.09002139
0.0901488
0.09020137
0.09012384
0.08988496
0.0895867
0.08982134
0.08989398
0.08983396
0.08969491
0.08950777
0.08929052
0.08905503
0.08881123
0.0885695
0.0883415
0.08813986
0.08797719
0.08786472
0.08781087
0.08782007
0.08789231
0.08802315
0.08820415
0.08842405
0.08867012
0.08892954
0.08919043
0.08944211
0.08967425
0.08987458
0.09002461
0.09009274
0.09002432
0.08978887
0.08947263
0.08969874
0.08975545
0.08967253
0.08950311
0.08927716
0.08901222
0.08872072
0.08841432
0.08810626
0.08781218
0.08754941
0.08733544
0.08718586
0.08711236
0.08712124
0.08721247
0.08737981
0.08761156
0.08789209
0.08820381
0.08852918
0.08885234
0.08915971
0.08943928
0.08967822
0.08985849
0.08994948
0.08989698
0.08967004
0.08934765
0.08956284
0.08959939
0.08948771
0.08928058
0.08900698
0.08868379
0.08832362
0.08793966
0.08754839
0.08717035
0.08682912
0.08654877
0.08635094
0.08625189
0.08626038
0.0863764
0.08659125
0.08688875
0.0872472
0.08764242
0.08805062
0.088451
0.08882675
0.08916434
0.08945075
0.08966862
0.0897883
0.08975594
0.08953989
0.08921826
0.08942143
0.08943527
0.08929047
0.08903932
0.08870981
0.088318
0.08787645
0.08739966
0.08690742
0.08642604
0.08598693
0.08562263
0.0853635
0.08523206
0.08524007
0.08538759
0.08566295
0.08604372
0.08649949
0.0869976
0.0875064
0.08799931
0.08845621
0.08886223
0.0892044
0.08946618
0.08961893
0.08960926
0.08940518
0.08908928
0.08928006
0.08926983
0.08908913
0.08878941
0.08839742
0.08792816
0.08739385
0.08680989
0.08619914
0.08559393
0.08503481
0.08456644
0.08422976
0.084056
0.08406349
0.08425231
0.08460431
0.08508846
0.08566372
0.08628524
0.08691224
0.08751208
0.08806157
0.0885449
0.08894945
0.08925972
0.08944832
0.08946269
0.08927097
0.08896529
0.08914382
0.08910935
0.08889177
0.08854133
0.08808318
0.08753087
0.08689573
0.08619333
0.08544879
0.08469835
0.08399298
0.08339059
0.08294456
0.08270254
0.08270956
0.08296573
0.08342596
0.0840433
0.08476433
0.08553076
0.08629128
0.08700939
0.08765959
0.08822589
0.08869653
0.08905749
0.08928294
0.08932153
0.08914199
0.08885116
0.08901814
0.08896046
0.08870708
0.08830677
0.08778276
0.08714673
0.08640846
0.08558241
0.0846927
0.08377975
0.08290259
0.08210473
0.08144709
0.08101834
0.08102552
0.08146869
0.08213792
0.08294971
0.08384193
0.08477067
0.08567616
0.08651781
0.08727107
0.08792106
0.08845754
0.08886835
0.08912958
0.08919133
0.0890232
0.08875207
0.08890866
0.08883016
0.08854435
0.08809839
0.08751352
0.08679932
0.08596346
0.08501765
0.08398192
0.08289728
0.08177622
0.0805038
0.07956217
0.07905581
0.07906173
0.07958054
0.08053551
0.08182067
0.08295621
0.08405622
0.08510765
0.08606896
0.08691978
0.08764792
0.08824525
0.0887017
0.08899535
0.0890778
0.08891969
0.08867253
0.08882086
0.08872533
0.08841271
0.08792877
0.08729291
0.08651268
0.08559324
0.08454369
0.0833743
0.08209417
0.08049876
0.07902178
0.07792347
0.07734143
0.07734633
0.07793914
0.07905038
0.08054231
0.08215136
0.08344571
0.0846306
0.08569553
0.08662987
0.08742402
0.08807234
0.08856675
0.08888713
0.08898643
0.08883623
0.08861727
0.08875971
0.08865205
0.08832027
0.08780905
0.08713643
0.08630835
0.08532806
0.0842014
0.08292285
0.08142951
0.07955268
0.07791966
0.07671655
0.07608053
0.07608466
0.07673008
0.0779453
0.07959409
0.08149116
0.08299291
0.08428606
0.08542792
0.08642305
0.08726498
0.08795002
0.08847166
0.08881114
0.08892244
0.0887778
0.08858938
0.08872882
0.08861486
0.08827308
0.08774759
0.08705569
0.08620249
0.08519031
0.08402189
0.08267557
0.08099554
0.07904226
0.07733446
0.07607784
0.07541394
0.07541764
0.07609022
0.07735845
0.07908201
0.08105586
0.08274433
0.08410511
0.08528862
0.08631556
0.08718253
0.08788677
0.08842261
0.08877202
0.08888952
0.08874769
0.08859045
0.08872989
0.08861595
0.08827419
0.08774873
0.08705687
0.08620374
0.08519162
0.08402328
0.082677
0.08099691
0.07904375
0.07733605
0.07607952
0.07541567
0.07541939
0.07609194
0.07736009
0.07908352
0.08105719
0.08274541
0.08410599
0.08528932
0.08631609
0.08718288
0.08788694
0.08842263
0.08877192
0.08888932
0.08874741
0.08862039
0.08876283
0.08865523
0.08832353
0.08781242
0.08713992
0.08631201
0.08533191
0.08420548
0.0829271
0.08143357
0.0795571
0.07792439
0.07672154
0.0760857
0.07608987
0.07673518
0.07795014
0.07959851
0.08149506
0.08299609
0.08428868
0.08542999
0.08642456
0.08726593
0.08795044
0.08847161
0.08881071
0.08892172
0.08877685
0.08867736
0.08882578
0.08873037
0.08841792
0.08793417
0.08729854
0.08651857
0.08559947
0.08455031
0.08338129
0.08210141
0.08050606
0.07902952
0.07793162
0.07734986
0.07735481
0.0779474
0.07905816
0.08054935
0.08215739
0.08345081
0.08463479
0.08569879
0.08663216
0.08742533
0.08807274
0.08856635
0.08888608
0.08898497
0.08883437
0.0887583
0.08891499
0.0888367
0.08855115
0.08810552
0.08752102
0.08680722
0.08597182
0.08502657
0.08399142
0.08290729
0.0817866
0.08051437
0.07957323
0.0790672
0.07907314
0.0795916
0.08054582
0.08182984
0.08296422
0.08406302
0.08511318
0.08607315
0.08692256
0.0876493
0.08824534
0.08870065
0.08899338
0.08907517
0.08891659
0.08885828
0.08902539
0.08896801
0.08871505
0.08831522
0.08779177
0.08715633
0.0864187
0.08559336
0.08470442
0.08379218
0.0829156
0.08211816
0.08146067
0.08103224
0.08103939
0.08148206
0.08215024
0.08296082
0.08385166
0.08477887
0.0856827
0.08652257
0.08727399
0.08792216
0.08845696
0.08886629
0.08912634
0.08918725
0.08901865
0.08897269
0.08915141
0.08911736
0.08890038
0.08855065
0.08809329
0.08754182
0.08690756
0.08620606
0.08546244
0.08471291
0.0840083
0.08340646
0.08296076
0.08271879
0.0827255
0.08298098
0.08344012
0.08405607
0.08477544
0.08553999
0.08629842
0.0870143
0.08766219
0.08822623
0.08869476
0.08905386
0.08927784
0.08931543
0.0891354
0.08909632
0.08928735
0.08927771
0.08909784
0.08879911
0.08840821
0.08794009
0.08740694
0.08682414
0.0862145
0.08561033
0.0850521
0.08458438
0.08424806
0.08407427
0.08408132
0.0842693
0.08462005
0.08510258
0.08567588
0.08629511
0.08691958
0.08751671
0.08806341
0.088544
0.08894598
0.08925401
0.08944082
0.089454
0.08926175
0.0892243
0.08942782
0.08944243
0.08929874
0.08904891
0.08872085
0.08833054
0.0878905
0.08741517
0.08692429
0.0864441
0.08600596
0.08564237
0.08538359
0.08525206
0.08525954
0.08540605
0.08567997
0.08605884
0.0865123
0.08700773
0.08751356
0.08800328
0.0884569
0.08885968
0.08919882
0.08945794
0.08960858
0.08959751
0.08939284
0.08935212
0.08956776
0.08960532
0.08949506
0.08928962
0.08901788
0.08869661
0.08833834
0.08795618
0.08756653
0.08718987
0.08684972
0.08657009
0.08637258
0.08627338
0.08628121
0.08639605
0.08660923
0.08690454
0.08726033
0.08765247
0.08805726
0.08845398
0.08882597
0.08915984
0.08944274
0.08965753
0.08977476
0.08974078
0.08952404
0.08947511
0.08970178
0.08975974
0.08967857
0.08951125
0.0892876
0.08902503
0.08873585
0.08843159
0.08812543
0.08783292
0.08757135
0.08735814
0.08720883
0.08713509
0.08714317
0.08723303
0.08739844
0.08762771
0.08790524
0.08821351
0.08853506
0.08885411
0.08915725
0.08943262
0.0896676
0.08984437
0.08993257
0.08987823
0.08965051
0.08958693
0.08982227
0.0898964
0.08983847
0.08970193
0.08951754
0.0893031
0.08907032
0.08882901
0.08858945
0.08836321
0.08816288
0.08800101
0.08788878
0.08783458
0.08784283
0.08791351
0.08804219
0.08822043
0.08843702
0.08867929
0.08893451
0.08919088
0.08943789
0.08966539
0.08986133
0.09000747
0.0900725
0.09000202
0.0897657
0.08967677
0.08991567
0.08999912
0.08995711
0.0898437
0.08969012
0.08951386
0.08932555
0.08913324
0.08894481
0.08876882
0.08861445
0.08849086
0.08840615
0.08836642
0.08837479
0.08843125
0.08853267
0.08867289
0.08884375
0.08903602
0.08924035
0.08944797
0.08965077
0.08984035
0.09000571
0.09012889
0.09017808
0.09009827
0.08985844
0.08972379
0.0899557
0.09003766
0.09000311
0.08990563
0.08977534
0.08962822
0.08947341
0.08931735
0.08916612
0.08902619
0.08890451
0.08880792
0.08874254
0.08871295
0.08872138
0.08876786
0.08885009
0.08896346
0.08910181
0.08925816
0.08942547
0.08959703
0.08976653
0.08992717
0.09006942
0.0901768
0.09021858
0.09014025
0.08990746
0.08968933
0.08989309
0.08995827
0.08992223
0.0898341
0.08971997
0.08959326
0.08946137
0.08932957
0.08920275
0.08908615
0.08898535
0.08890588
0.08885267
0.08882939
0.08883781
0.08887796
0.08894804
0.0890443
0.08916177
0.08929482
0.08943775
0.0895851
0.08973173
0.08987204
0.08999819
0.09009628
0.09013956
0.090078
0.08987342
0.08954441
0.08969035
0.08972738
0.08968431
0.08959967
0.08949412
0.08937834
0.08925847
0.08913903
0.08902439
0.08891922
0.08882851
0.08875719
0.08870967
0.08868924
0.08869755
0.08873464
0.0887988
0.08888668
0.08899385
0.08911529
0.08924586
0.08938068
0.08951515
0.08964441
0.0897619
0.08985643
0.08990672
0.08987337
0.08972685
0.1920088
0.1921051
0.1921001
0.1919823
0.1917824
0.1915277
0.1912373
0.1909255
0.1906053
0.1902905
0.1899966
0.1897397
0.1895359
0.1893993
0.1893404
0.1893647
0.1894722
0.1896574
0.1899098
0.1902151
0.1905571
0.1909191
0.1912852
0.1916409
0.1919722
0.1922634
0.1924943
0.1926361
0.1926567
0.1925667
0.192102
0.1922618
0.1922997
0.1921945
0.1919852
0.1917071
0.1913846
0.1910356
0.1906756
0.1903205
0.1899879
0.1896965
0.1894644
0.1893077
0.1892383
0.1892626
0.1893806
0.189586
0.1898667
0.1902067
0.1905875
0.1909901
0.1913963
0.1917894
0.1921529
0.1924678
0.1927081
0.192837
0.1928138
0.1926593
0.1920911
0.1922938
0.1923623
0.1922576
0.1920216
0.1916963
0.1913123
0.1908918
0.1904546
0.1900207
0.1896121
0.1892522
0.1889637
0.1887668
0.1886765
0.1887005
0.1888391
0.1890842
0.1894209
0.1898291
0.1902857
0.190767
0.1912504
0.1917149
0.19214
0.1925019
0.1927687
0.1928965
0.192842
0.1926437
0.1919651
0.1921803
0.1922492
0.1921204
0.1918343
0.191436
0.1909602
0.1904336
0.189881
0.1893283
0.1888043
0.1883397
0.1879647
0.1877058
0.1875829
0.1876064
0.1877765
0.1880825
0.1885049
0.189017
0.1895884
0.190188
0.1907864
0.1913567
0.1918732
0.1923078
0.1926243
0.1927758
0.1927203
0.1925088
0.1917551
0.1919607
0.1920028
0.1918238
0.1914621
0.1909631
0.1903636
0.1896945
0.1889857
0.1882709
0.1875881
0.1869787
0.1864834
0.1861381
0.1859696
0.1859923
0.1862063
0.1865973
0.1871387
0.1877945
0.1885237
0.1892846
0.1900384
0.1907508
0.1913904
0.1919252
0.1923169
0.1925181
0.1924889
0.1922868
0.1914886
0.1916706
0.1916655
0.1914135
0.1909511
0.1903229
0.1895666
0.1887161
0.1878076
0.1868835
0.1859941
0.1851948
0.1845411
0.1840817
0.183853
0.1838747
0.1841469
0.1846501
0.1853482
0.1861924
0.187127
0.1880961
0.189049
0.1899419
0.1907377
0.1914012
0.1918931
0.192167
0.1921847
0.192006
0.191185
0.1913349
0.1912682
0.1909244
0.1903384
0.1895535
0.1886073
0.1875361
0.1863822
0.1851987
0.1840509
0.1830124
0.1821578
0.1815532
0.1812479
0.1812684
0.1816148
0.1822609
0.1831579
0.1842396
0.1854313
0.1866588
0.1878561
0.188969
0.1899542
0.1907739
0.1913889
0.1917542
0.1918334
0.1916868
0.1908591
0.1909717
0.1908335
0.1903838
0.1896553
0.1886893
0.1875224
0.186193
0.1847492
0.1832559
0.181796
0.1804659
0.1793646
0.1785807
0.1781805
0.1781996
0.1786381
0.179461
0.1806025
0.181974
0.1834763
0.1850126
0.1864989
0.1878695
0.1890748
0.1900752
0.1908324
0.1913034
0.1914539
0.1913446
0.1905242
0.1905968
0.1903814
0.1898165
0.1889321
0.1877666
0.1863547
0.1847355
0.1829629
0.1811137
0.1792905
0.177616
0.1762193
0.1752178
0.1747009
0.1747185
0.1752706
0.1763083
0.1777429
0.1794569
0.1813212
0.1832124
0.1850269
0.1866866
0.1881366
0.1893362
0.190249
0.1908351
0.1910626
0.1909933
0.1901942
0.1902264
0.1899323
0.1892488
0.1882027
0.1868283
0.1851575
0.1832289
0.1811005
0.1788605
0.1766306
0.1745613
0.1728144
0.1715444
0.1708782
0.1708943
0.1715928
0.1728959
0.1746782
0.1767852
0.1790549
0.181336
0.1835056
0.1854745
0.1871831
0.1885913
0.1896657
0.1903702
0.1906765
0.1906475
0.1898847
0.189878
0.189508
0.1887094
0.1875051
0.1859247
0.1839961
0.1817561
0.1792649
0.1766184
0.1739546
0.1714441
0.1692696
0.1676434
0.1667668
0.1667816
0.1676879
0.1693445
0.1715515
0.1740977
0.1768002
0.1794869
0.1820189
0.1842989
0.1862652
0.1878793
0.1891118
0.1899314
0.1903134
0.1903231
0.1896117
0.1895703
0.189132
0.1882291
0.1868806
0.1851111
0.1829441
0.1804134
0.1775786
0.174538
0.1714333
0.1684184
0.1656631
0.1635337
0.1624191
0.1624322
0.1635742
0.165734
0.1685181
0.1715663
0.1747083
0.1777885
0.1806638
0.1832343
0.1854388
0.1872419
0.1886186
0.1895423
0.1899925
0.1900366
0.189391
0.1893212
0.1888267
0.1878378
0.1863696
0.1844426
0.1820758
0.1792994
0.1761704
0.1727805
0.1692488
0.165653
0.1623512
0.1599288
0.1586541
0.1586654
0.1599641
0.1624149
0.1657492
0.1693744
0.1729415
0.1763703
0.1795394
0.1823554
0.1847596
0.1867201
0.1882163
0.1892259
0.189732
0.1898041
0.1892364
0.1891465
0.188612
0.1875616
0.1860079
0.1839677
0.181457
0.1785025
0.1751572
0.1715
0.1676124
0.1635149
0.1599209
0.1572854
0.1558983
0.1559082
0.1573168
0.1599783
0.1636042
0.1677339
0.1716546
0.1753498
0.1787348
0.1817285
0.1842765
0.18635
0.1879316
0.1890025
0.1895483
0.1896402
0.1891582
0.1890578
0.1885025
0.1874201
0.1858217
0.1837225
0.1811363
0.1780884
0.174628
0.1708229
0.166726
0.1623919
0.1586393
0.1558922
0.1544465
0.1544556
0.1559215
0.1586936
0.1624777
0.1668442
0.1709736
0.1748162
0.178316
0.1814029
0.1840259
0.1861583
0.1877843
0.1888869
0.1894532
0.1895554
0.1891615
0.1890611
0.1885058
0.1874235
0.1858252
0.183726
0.18114
0.1780922
0.1746318
0.1708268
0.1667299
0.1623959
0.1586434
0.1558964
0.1544508
0.1544599
0.1559258
0.1586977
0.1624816
0.1668478
0.1709768
0.1748189
0.1783183
0.1814047
0.1840273
0.1861591
0.1877847
0.1888869
0.189453
0.1895549
0.189246
0.1891561
0.1886218
0.1875716
0.1860181
0.1839783
0.1814678
0.1785136
0.1751686
0.1715117
0.1676242
0.1635269
0.1599331
0.157298
0.1559112
0.1559211
0.1573296
0.1599907
0.1636159
0.1677446
0.1716641
0.175358
0.1787416
0.1817338
0.1842803
0.1863523
0.1879326
0.1890023
0.1895473
0.1896387
0.189406
0.1893364
0.1888422
0.1878537
0.186386
0.1844595
0.1820933
0.1793175
0.1761891
0.1727998
0.1692685
0.1656729
0.1623718
0.1599498
0.1586756
0.1586869
0.1599854
0.1624354
0.1657685
0.1693919
0.172957
0.1763836
0.1795503
0.1823637
0.1847653
0.1867233
0.1882173
0.189225
0.1897297
0.1898009
0.1896309
0.1895898
0.189152
0.1882498
0.1869021
0.1851336
0.1829676
0.1804379
0.1776043
0.1745647
0.1714608
0.1684466
0.1656918
0.1635632
0.1624491
0.1624622
0.1636036
0.1657622
0.1685444
0.1715902
0.1747294
0.1778064
0.1806781
0.1832449
0.1854457
0.1872452
0.1886187
0.1895397
0.1899879
0.1900308
0.1899063
0.1899001
0.1895309
0.1887335
0.1875306
0.1859518
0.1840248
0.1817864
0.1792969
0.176652
0.1739896
0.1714803
0.1693068
0.1676814
0.1668051
0.1668197
0.1677251
0.16938
0.1715844
0.1741275
0.1768262
0.1795087
0.182036
0.184311
0.1862723
0.1878816
0.1891099
0.189926
0.1903054
0.1903136
0.1902163
0.190249
0.1899562
0.1892745
0.1882305
0.1868585
0.1851902
0.1832641
0.1811382
0.1789005
0.1766726
0.1746051
0.1728595
0.1715904
0.1709245
0.1709401
0.1716372
0.1729381
0.1747173
0.1768203
0.1790852
0.1813608
0.1835244
0.1854869
0.1871892
0.1885914
0.1896604
0.1903605
0.1906636
0.190633
0.1905444
0.1906179
0.1904043
0.189842
0.1889607
0.1877986
0.1863902
0.1847746
0.1830054
0.1811593
0.1793389
0.1776667
0.1762717
0.1752713
0.1747546
0.1747714
0.1753218
0.1763567
0.1777873
0.1794964
0.1813548
0.1832391
0.1850462
0.1866983
0.1881405
0.1893327
0.190239
0.1908197
0.1910435
0.1909721
0.1908753
0.190989
0.1908533
0.1904071
0.1896829
0.1887215
0.1875596
0.1862349
0.1847957
0.1833065
0.1818502
0.180523
0.1794237
0.178641
0.1782409
0.178259
0.1786952
0.1795146
0.1806514
0.182017
0.1835122
0.1850403
0.1865179
0.1878793
0.1890753
0.190067
0.1908164
0.1912811
0.1914271
0.1913154
0.191195
0.1913465
0.1912831
0.1909439
0.1903635
0.1895847
0.1886448
0.1875798
0.1864317
0.1852534
0.18411
0.183075
0.1822228
0.1816195
0.1813143
0.1813335
0.1816771
0.182319
0.1832103
0.184285
0.1854684
0.1866865
0.1878736
0.1889759
0.1899504
0.19076
0.191366
0.1917239
0.1917978
0.1916486
0.1914909
0.191675
0.1916741
0.1914279
0.1909724
0.1903519
0.1896035
0.1887607
0.1878593
0.1869414
0.1860573
0.1852622
0.1846112
0.1841532
0.1839244
0.1839445
0.1842133
0.1847117
0.1854033
0.1862394
0.1871646
0.1881231
0.1890644
0.1899453
0.190729
0.191381
0.1918627
0.1921281
0.1921398
0.1919581
0.1917489
0.191957
0.1920041
0.1918322
0.191479
0.1909892
0.1903992
0.1897391
0.1890388
0.1883313
0.1876546
0.1870498
0.1865576
0.1862138
0.1860451
0.1860658
0.186276
0.1866615
0.1871956
0.1878424
0.1885611
0.1893102
0.1900513
0.1907503
0.1913765
0.1918985
0.1922787
0.1924705
0.1924347
0.1922292
0.1919503
0.1921685
0.1922433
0.1921226
0.1918464
0.1914589
0.1909939
0.1904778
0.1899348
0.1893904
0.1888732
0.1884137
0.1880421
0.1877848
0.1876614
0.1876827
0.1878485
0.1881484
0.1885628
0.1890651
0.1896251
0.1902119
0.1907965
0.1913523
0.1918542
0.1922749
0.1925789
0.1927202
0.1926573
0.1924422
0.1920686
0.1922747
0.1923498
0.1922544
0.1920294
0.1917162
0.1913442
0.1909354
0.1905086
0.1900838
0.1896826
0.1893283
0.1890434
0.188848
0.1887572
0.1887787
0.1889126
0.1891511
0.1894792
0.189877
0.1903214
0.1907892
0.1912578
0.191707
0.1921166
0.1924637
0.1927171
0.192834
0.1927717
0.1925693
0.1920736
0.1922371
0.1922824
0.1921873
0.1919899
0.1917246
0.1914151
0.1910785
0.1907296
0.1903842
0.1900594
0.1897738
0.1895454
0.1893902
0.1893203
0.1893418
0.1894549
0.1896533
0.1899251
0.1902542
0.1906224
0.1910108
0.1914018
0.1917789
0.1921263
0.1924257
0.1926521