/*--------------------------------*- C++ -*----------------------------------*\
| =========                 |                                                 |
| \\      /  F ield         | OpenFOAM: The Open Source CFD Toolbox           |
|  \\    /   O peration     | Version:  2506                                  |
|   \\  /    A nd           | Website:  www.openfoam.com                      |
|    \\/     M anipulation  |                                                 |
\*---------------------------------------------------------------------------*/
FoamFile
{
    version     2.0;
    format      ascii;
    arch        "LSB;label=32;scalar=64";
    class       volScalarField;
    location    "4000/air";
    object      qr;
}
// * * * * * * * * * * * * * * * * * * * * * * * * * * * * * * * * * * * * * //

dimensions      [1 0 -3 0 0 0 0];

internalField   uniform 0;

boundaryField
{
    maxY
    {
        type            calculated;
        value           uniform 0;
    }
    minX
    {
        type            calculated;
        value           uniform 0;
    }
    maxX
    {
        type            calculated;
        value           uniform 0;
    }
    minY
    {
        type            calculated;
        value           uniform 0;
    }
    maxZ
    {
        type            calculated;
        value           uniform 0;
    }
    air_to_solid
    {
        type            greyDiffusiveRadiationViewFactor;
        value           nonuniform List<scalar> 
1536
(
5.487347
5.428871
5.414108
5.404722
5.394336
5.395633
5.466426
5.423783
5.408259
5.398519
5.387777
5.389544
5.4641
5.420755
5.40513
5.395256
5.384427
5.386047
5.465698
5.42223
5.406536
5.396602
5.385766
5.387331
5.464346
5.420963
5.405326
5.395455
5.384607
5.386253
5.472558
5.430351
5.414802
5.405017
5.394315
5.396034
3.159736
6.155097
-96.03059
1.788709
-96.70299
1.789135
-96.727
1.787555
-96.73166
1.777884
-96.72306
1.772835
-96.68847
2.136765
5.544598
-95.75345
-96.63589
-96.66031
-96.66495
-96.65636
-96.62094
1.221291
5.555589
-95.77829
-96.66113
-96.686
-96.69074
-96.682
-96.64607
1.226226
5.561207
-95.78307
-96.66589
-96.69084
-96.69561
-96.68683
-96.65082
1.229619
5.554577
-95.77458
-96.65738
-96.68217
-96.68688
-96.67818
-96.64232
1.224694
5.548104
-95.7405
-96.62243
-96.64666
-96.65128
-96.64273
-96.60756
1.22376
3.49738
2.12369
2.124089
2.122472
2.112757
2.107661
4.336766
3.373456
3.368608
3.363422
3.362801
3.360451
3.359105
3.35342
3.35142
3.349405
3.352377
3.416154
6.846646
7.092341
5.436631
5.471139
5.437426
5.416626
5.42911
5.416241
5.407203
5.413623
5.406453
5.39675
5.403892
5.395715
5.392252
5.393235
5.391257
5.410187
5.394993
5.377017
3.395092
3.309573
7.0898
7.091721
5.432152
5.463591
5.428719
5.410867
5.420307
5.407333
5.401088
5.404704
5.397456
5.390283
5.394861
5.386577
5.385779
5.384037
5.381955
5.371944
5.385705
5.368294
3.30565
3.304331
7.093285
7.096521
5.429154
5.465614
5.430541
5.407765
5.422158
5.409127
5.397852
5.406468
5.399144
5.386963
5.396537
5.388241
5.382319
5.385702
5.383585
5.368612
5.387271
5.369796
3.305125
3.307013
7.096678
7.094385
5.430612
5.464686
5.429671
5.409192
5.421263
5.408257
5.399207
5.405612
5.39832
5.388301
5.395716
5.387411
5.383642
5.384867
5.38275
5.369851
5.386472
5.368998
3.307046
3.305357
7.093135
7.092142
5.429382
5.467684
5.433265
5.407958
5.42488
5.411923
5.398051
5.4093
5.402096
5.387147
5.399513
5.39125
5.382506
5.388731
5.386709
5.368792
5.390464
5.372782
3.304632
3.306159
7.094978
6.955326
5.438684
5.489736
5.43931
4.676491
3.678556
5.417433
5.431521
5.419188
3.673706
3.668499
5.407589
5.416642
5.409658
3.667869
3.665491
5.396805
5.407152
5.399112
3.664134
3.658417
5.392307
5.396676
5.394531
3.656405
3.654355
5.377967
5.397893
5.412022
3.31015
3.657317
3.397436
3.423097
1.79143
-96.69075
5.544533
-95.74054
-96.60984
1.788603
-96.7234
-96.62247
-96.64308
1.788759
-96.73168
-96.64671
-96.65135
1.78075
-96.72678
-96.65133
-96.64652
1.77167
-96.7016
-96.64277
-96.62114
2.164001
-97.18783
-96.60761
1.223311
-97.54606
-96.62314
5.552659
-95.77461
-96.6445
-96.65666
-96.6574
-96.67848
-96.66497
-96.68219
-96.68693
-96.66013
-96.68691
-96.68203
-96.63458
-96.67821
-96.65614
-97.559
-96.64235
1.22446
-97.58023
-96.6482
5.560994
-95.78307
-96.65294
-96.68226
-96.66589
-96.68709
-96.69075
-96.69084
-96.69563
-96.68584
-96.69562
-96.69069
-96.65988
-96.68683
-96.66465
-97.58392
-96.65082
1.229593
-97.58873
-96.65294
5.557082
-95.77827
-96.64818
-96.68709
-96.66111
-96.68225
-96.69563
-96.68598
-96.69074
-96.69069
-96.69072
-96.68582
-96.66465
-96.68198
-96.65986
-97.58873
-96.64605
1.226406
-97.5839
-96.64448
5.547769
-95.7534
-96.6231
-96.67845
-96.63585
-96.65661
-96.6869
-96.66027
-96.66493
-96.682
-96.66491
-96.66008
-96.65611
-96.65631
-96.63453
-97.5802
-96.62088
1.22169
-97.55895
-96.6098
6.229297
-95.96868
2.126413
-96.59436
-96.64304
-96.6066
2.123565
-96.62701
-96.65131
-96.63061
2.123686
-96.63529
-96.64647
-96.63526
2.115635
-96.63038
-96.62109
-96.62666
2.106507
-96.6052
-97.54601
-96.59205
2.138616
2.177849
-97.12581
5.48398
5.464268
5.488814
4.34988
7.132979
4.551084
7.179313
5.44222
5.423514
5.447763
4.557323
4.553452
5.430102
5.411814
5.432479
4.547783
4.546506
5.420175
5.402104
5.42283
4.541793
4.53975
5.410469
5.392439
5.412352
4.533078
4.531337
5.421049
5.402495
5.413926
4.534421
4.537926
4.246652
4.471557
5.458824
5.461223
5.464214
7.162216
7.160996
5.415521
5.41809
5.421237
5.403303
5.405876
5.405694
5.393212
5.395819
5.395924
5.383174
5.385839
5.385131
5.394412
5.397066
5.386871
4.486918
4.484883
5.458972
5.458405
5.46473
7.163047
7.16413
5.415624
5.415048
5.421336
5.403251
5.40271
5.405683
5.393057
5.392535
5.395783
5.382991
5.382469
5.384951
5.394026
5.393547
5.386543
4.485105
4.485788
5.459703
5.459867
5.465521
7.165627
7.16535
5.416344
5.416515
5.422061
5.403934
5.404096
5.406375
5.393716
5.393876
5.396446
5.383643
5.383809
5.385605
5.394639
5.394795
5.387172
4.486722
4.486472
5.458811
5.458667
5.464396
7.16305
7.162449
5.415391
5.415239
5.421119
5.403101
5.402908
5.405512
5.392945
5.39273
5.395671
5.382859
5.382644
5.384827
5.394024
5.393766
5.386498
4.484895
4.484748
5.476277
5.467533
5.480817
7.167874
7.176154
5.434084
5.42467
5.439722
5.421824
5.412399
5.424229
5.411771
5.402317
5.414458
5.401918
5.392383
5.403833
5.412771
5.403472
5.405487
4.492173
4.497332
4.681175
4.55838
4.564329
4.560396
4.554548
4.553215
4.548341
4.546247
4.539428
4.53764
4.54059
4.544057
-96.38653
-96.53009
2.04102
-95.74234
5.647065
-96.6059
-96.71189
1.787905
-96.59701
-96.62341
-96.72943
1.789469
-96.621
-96.62487
-96.73089
1.785763
-96.62562
-96.61204
-96.71801
1.775049
-96.61706
-96.58041
-96.68214
1.771079
-96.58239
-96.41437
-96.40509
-95.76273
5.546619
-96.6545
-96.64497
-96.64536
-96.67237
-96.66273
-96.66993
-96.67384
-96.6642
-96.6746
-96.66087
-96.65129
-96.66597
-96.63063
-96.62128
-96.63036
-96.43237
-96.42991
-95.78076
5.558096
-96.67284
-96.67036
-96.6636
-96.69099
-96.68847
-96.68851
-96.6925
-96.68998
-96.69327
-96.67934
-96.67685
-96.68451
-96.64873
-96.64627
-96.64853
-96.43392
-96.43465
-95.78232
5.560572
-96.6744
-96.67513
-96.66515
-96.69257
-96.69332
-96.69009
-96.69409
-96.69485
-96.69486
-96.68091
-96.68165
-96.68608
-96.65028
-96.65102
-96.65008
-96.42123
-96.4262
-95.76959
5.551831
-96.66153
-96.66658
-96.65235
-96.67949
-96.68462
-96.67704
-96.68098
-96.68612
-96.68174
-96.66795
-96.67304
-96.67307
-96.63754
-96.64254
-96.63731
-96.37586
-96.39203
-95.72506
5.559406
-96.61278
-96.63144
-96.60384
-96.63033
-96.64908
-96.62793
-96.63179
-96.65053
-96.63254
-96.61896
-96.63768
-96.62399
-96.5893
-96.60803
-96.58907
4.563492
4.570399
4.40453
3.517164
3.820035
3.844213
3.381148
3.848869
4.549173
4.550915
3.838997
3.365849
3.835929
3.833016
3.36429
3.834109
4.543591
4.545142
3.83221
3.362219
3.831467
3.829461
3.361468
3.830583
4.535229
4.537526
3.82804
3.357431
3.826322
3.822307
3.355499
3.824374
4.531167
4.530496
3.820339
3.349736
3.818727
3.818635
3.348867
3.817959
4.272582
4.508647
3.821777
3.357866
3.823751
3.546626
3.365767
3.784526
7.165822
7.172476
6.899076
7.075098
7.228603
7.259815
7.09526
7.262194
5.467687
5.447986
5.455803
5.474809
5.479239
5.46622
5.458749
5.446536
5.449848
5.438194
5.419617
5.435087
5.432704
5.438324
5.423445
5.428646
5.42552
5.419373
5.427765
5.409547
5.42536
5.42051
5.422901
5.411234
5.41816
5.415738
5.408883
5.417453
5.39941
5.414778
5.410514
5.413189
5.401202
5.40777
5.405069
5.398439
5.409591
5.391537
5.410383
5.40071
5.402615
5.391312
5.399823
5.400647
5.390415
5.427541
5.41068
5.39759
5.411608
5.404312
5.402441
5.417046
5.385685
5.408071
4.491447
4.496508
3.525715
3.328499
3.748409
3.780209
3.31625
3.783545
7.161953
7.161109
7.256869
7.089446
7.256168
7.25791
7.090279
7.25671
5.442203
5.444677
5.429633
5.457958
5.463473
5.45797
5.441307
5.428725
5.441305
5.411433
5.414005
5.408295
5.414599
5.420317
5.414591
5.410512
5.407365
5.410496
5.400943
5.403526
5.398499
5.402349
5.404751
5.402293
5.399982
5.397531
5.399919
5.390417
5.393034
5.387657
5.392227
5.394944
5.392142
5.389429
5.386666
5.389345
5.38225
5.384932
5.383098
5.382169
5.384129
5.382079
5.381231
5.382063
5.381141
5.400206
5.402822
5.369419
5.393361
5.385827
5.393224
5.399151
5.368407
5.399002
4.484517
4.484283
3.77605
3.304063
3.774272
3.774262
3.303815
3.773871
7.165505
7.164985
7.259287
7.094736
7.260588
7.262207
7.09585
7.261598
5.442298
5.441735
5.429724
5.459472
5.465271
5.45979
5.442796
5.430227
5.44311
5.41151
5.410942
5.408326
5.41613
5.421845
5.416442
5.412011
5.408823
5.412323
5.400857
5.400323
5.398382
5.403731
5.40617
5.404027
5.401332
5.398855
5.401627
5.390252
5.389732
5.387486
5.393521
5.39625
5.39381
5.390719
5.387954
5.391009
5.382042
5.381523
5.382834
5.383457
5.385416
5.383745
5.38251
5.383298
5.3828
5.399769
5.399305
5.369091
5.39446
5.38699
5.394735
5.400194
5.369522
5.400464
4.486681
4.486348
3.774967
3.305965
3.775736
3.776713
3.30663
3.776354
7.163899
7.164738
7.262351
7.096322
7.262028
7.26029
7.095522
7.261305
5.443019
5.443184
5.430445
5.459358
5.465147
5.458945
5.442673
5.430093
5.44226
5.412221
5.412391
5.409027
5.415982
5.421699
5.415547
5.411864
5.408679
5.411438
5.40153
5.401691
5.399049
5.403591
5.406028
5.403185
5.401193
5.398717
5.400795
5.390908
5.39107
5.388141
5.39338
5.396111
5.392988
5.390574
5.387807
5.390183
5.382691
5.382859
5.383478
5.383302
5.385265
5.382904
5.382353
5.383143
5.381957
5.400369
5.400522
5.369687
5.394325
5.386846
5.393966
5.400062
5.369366
5.399716
4.485398
4.485995
3.776749
3.306729
3.776461
3.77522
3.30613
3.775916
7.164037
7.162579
7.259201
7.092005
7.258287
7.259008
7.091482
7.258028
5.442135
5.44198
5.429537
5.459834
5.465306
5.462387
5.443183
5.430598
5.445808
5.411292
5.411131
5.408132
5.416457
5.422187
5.419171
5.412359
5.409213
5.415073
5.400723
5.400521
5.398262
5.404193
5.406596
5.406903
5.401825
5.399374
5.404543
5.390137
5.389921
5.387366
5.394062
5.396785
5.3968
5.391261
5.388496
5.394008
5.381913
5.381696
5.382739
5.383992
5.385957
5.386784
5.383061
5.383903
5.38587
5.3998
5.399532
5.369018
5.395199
5.387667
5.397975
5.400976
5.370144
5.403713
4.487558
4.485435
3.77459
3.304185
3.774274
3.776606
3.304503
3.774752
7.204032
7.19578
7.262226
7.10005
7.266728
7.007504
7.098078
7.251233
5.460184
5.451125
5.447952
5.485729
5.490629
5.466942
5.469428
5.457527
5.450684
4.570559
4.577531
4.743795
3.870482
4.071835
3.900687
3.702252
3.923606
5.430008
5.420581
5.426864
5.443905
5.449468
5.426135
5.439858
5.43673
5.422208
4.555997
4.557798
3.895371
3.670941
3.892206
3.889104
3.669374
3.89029
5.419458
5.410032
5.41702
5.431707
5.434103
5.414321
5.429352
5.426929
5.412028
4.550192
4.551796
3.888209
3.667278
3.88738
3.885213
3.666518
3.886414
5.409013
5.39954
5.406299
5.421712
5.424382
5.404511
5.418974
5.416284
5.401794
4.541627
4.543973
3.883715
3.66245
3.881924
3.877769
3.660507
3.879905
5.401019
5.391476
5.401832
5.411947
5.413844
5.394758
5.411056
5.411834
5.393836
4.53738
4.536753
3.875735
3.654709
3.874058
3.873845
3.653828
3.873229
5.418183
5.409079
5.386753
5.422473
5.415365
5.404735
5.428923
5.398863
5.412857
4.24842
4.278346
4.472602
4.514788
3.78084
3.316916
3.784272
3.876931
3.644649
3.862856
3.528045
3.553355
3.329494
3.475214
3.749444
3.791865
-96.55274
-96.66221
1.817679
-96.58466
-96.37755
-95.72635
5.553986
-96.39208
-96.55918
-96.59332
-96.57514
-96.61256
-96.71855
1.78803
-96.6174
-96.61475
-96.60582
-96.63148
-96.62145
-96.62629
-96.63822
-96.62494
-96.73097
1.789374
-96.62565
-96.63231
-96.6299
-96.64912
-96.63383
-96.63454
-96.65064
-96.62328
-96.72929
1.783461
-96.62079
-96.63376
-96.63452
-96.65058
-96.63219
-96.6297
-96.649
-96.60506
-96.71103
1.772787
-96.59564
-96.62095
-96.62597
-96.63773
-96.61393
-96.60447
-96.63068
-96.70834
-96.75992
1.753463
-97.46975
1.365892
-96.59125
-96.59107
-96.60808
-96.73898
-97.52618
1.237745
-96.75727
-96.59764
-96.58831
-96.63254
-96.42126
-95.76962
5.549491
-96.42623
-96.60456
-96.63951
-96.60953
-96.66134
-96.65177
-96.66625
-96.66156
-96.65238
-96.66661
-96.66844
-96.67338
-96.67351
-96.6739
-96.66426
-96.67462
-96.67952
-96.67708
-96.68465
-96.68107
-96.68179
-96.6862
-96.67226
-96.66262
-96.66976
-96.68102
-96.68177
-96.68615
-96.67942
-96.67691
-96.68455
-96.65373
-96.64419
-96.64407
-96.66798
-96.6731
-96.67307
-96.66081
-96.65111
-96.66587
-96.77963
-96.77033
-97.56831
1.221452
-96.63758
-96.63735
-96.64257
-96.78654
-97.57523
1.222692
-96.79153
-96.61567
-96.61322
-96.65066
-96.43392
-95.78233
5.559931
-96.43466
-96.61722
-96.65221
-96.61795
-96.67977
-96.67728
-96.68477
-96.6744
-96.66516
-96.67514
-96.68134
-96.68635
-96.68208
-96.69255
-96.69003
-96.69328
-96.69258
-96.6901
-96.69333
-96.69415
-96.69488
-96.6949
-96.6909
-96.68837
-96.68835
-96.6941
-96.69487
-96.69485
-96.69249
-96.68994
-96.69324
-96.67211
-96.66963
-96.66236
-96.68092
-96.68609
-96.68166
-96.67368
-96.66392
-96.67442
-96.79769
-96.79522
-97.58641
1.22781
-96.65029
-96.65009
-96.65103
-96.79926
-97.58799
1.228966
-96.79999
-96.61721
-96.61795
-96.6522
-96.43235
-95.78075
5.559163
-96.42989
-96.61566
-96.65065
-96.6132
-96.68134
-96.68208
-96.68634
-96.67283
-96.66359
-96.67034
-96.67976
-96.68475
-96.67726
-96.69414
-96.6949
-96.69488
-96.69098
-96.6885
-96.68845
-96.69254
-96.69327
-96.69001
-96.69248
-96.69323
-96.68994
-96.69249
-96.69325
-96.68996
-96.69088
-96.68834
-96.68835
-96.67367
-96.67441
-96.66391
-96.67933
-96.6845
-96.67682
-96.6721
-96.66234
-96.6696
-96.79925
-96.79999
-97.58798
1.229042
-96.64872
-96.64852
-96.64625
-96.79768
-97.5864
1.227938
-96.7952
-96.60453
-96.6095
-96.63948
-96.41433
-95.76269
5.549378
-96.40505
-96.59759
-96.6325
-96.58826
-96.6684
-96.67348
-96.67335
-96.65446
-96.64532
-96.64493
-96.6613
-96.66622
-96.65172
-96.68104
-96.68618
-96.68176
-96.67233
-96.66989
-96.66269
-96.67386
-96.67458
-96.66422
-96.67939
-96.68452
-96.67687
-96.6738
-96.67456
-96.66416
-96.67222
-96.66971
-96.66257
-96.66077
-96.66584
-96.65107
-96.66083
-96.66593
-96.65124
-96.65368
-96.64403
-96.64414
-96.78651
-96.7915
-97.57519
1.22298
-96.63059
-96.63031
-96.62123
-96.77958
-97.56827
1.221796
-96.77027
-96.55725
-96.5751
-96.59134
-96.36912
-95.72982
5.665884
-96.43787
2.377243
-96.53322
-96.56494
-96.56613
2.152775
-96.61948
-96.63818
-96.62431
-96.58617
-96.57728
-96.61549
2.122881
-96.59283
-96.59767
-96.62216
2.123
-96.63186
-96.6506
-96.63256
-96.60368
-96.60127
-96.63304
2.124415
-96.60521
-96.60592
-96.63457
2.124311
-96.63021
-96.64896
-96.62772
-96.60513
-96.60589
-96.63449
2.12067
-96.60355
-96.60106
-96.6329
2.118356
-96.61195
-96.63063
-96.60248
-96.5923
-96.59733
-96.62161
2.10991
-96.58532
-96.5759
-96.61463
2.107636
-96.73726
-96.75722
-97.52488
1.238268
-96.56085
-96.56264
-96.58602
2.106008
-96.69089
-97.45718
1.366697
-96.66762
2.089469
)
;
        qro             uniform 0;
    }
    air_to_floor
    {
        type            greyDiffusiveRadiationViewFactor;
        value           nonuniform List<scalar> 
900
(
16.69555
19.94634
22.88477
25.52414
27.87479
29.94746
31.75463
33.30975
34.65153
35.774
36.66837
37.35752
37.88046
38.2355
38.41038
38.39243
38.1887
37.80558
37.2367
36.47982
35.51009
34.31081
32.88278
31.22711
29.31971
27.14872
24.70302
21.97272
18.94816
15.61652
20.0608
23.25362
26.12973
28.70415
30.98899
32.99676
34.74133
36.23721
37.5237
38.5965
39.44964
40.10643
40.60343
40.93992
41.10409
41.086
40.89251
40.52716
39.98268
39.25587
38.32447
37.17182
35.79559
34.19482
32.34594
30.236
27.85249
25.1838
22.21855
18.94222
23.11903
26.24997
29.06031
31.56676
33.78313
35.72366
37.4036
38.83849
40.06828
41.09001
41.90074
42.52415
42.99426
43.31184
43.46562
43.44767
43.26384
42.91664
42.39739
41.7017
40.80973
39.70496
38.38191
36.83767
35.04928
33.00272
30.68408
28.08009
25.17768
21.96068
25.88291
28.94977
31.69259
34.12966
36.27647
38.14888
39.76351
41.13732
42.30963
43.28005
44.04804
44.63756
45.0806
45.37927
45.52281
45.50509
45.33073
45.00168
44.50781
43.84366
42.99137
41.93462
40.66526
39.17772
37.45044
35.46813
33.2155
30.6777
27.84001
24.68466
28.36187
31.36423
34.03947
36.40743
38.48517
40.2901
41.84017
43.1539
44.26933
45.18921
45.91501
46.47093
46.88729
47.16747
47.30143
47.28367
47.11849
46.80711
46.33821
45.70524
44.892
43.88241
42.66595
41.23414
39.56721
37.64854
35.46149
32.98972
30.21693
27.12382
30.56557
33.50471
36.114
38.41473
40.42543
42.16499
43.65268
44.90831
45.96873
46.83987
47.52488
48.0482
48.4388
48.70126
48.82632
48.80827
48.65196
48.35741
47.91254
47.30972
46.53407
45.56976
44.40418
43.02611
41.41743
39.56035
37.43695
35.02946
32.3201
29.28812
32.50477
35.38339
37.92981
40.16658
42.11365
43.79127
45.21996
46.42055
47.42924
48.25411
48.90075
49.39293
49.75919
50.00493
50.12176
50.10328
49.95535
49.67664
49.25438
48.68002
47.93973
47.01808
45.90019
44.57279
43.01906
41.22024
39.15726
36.81096
34.16217
31.18882
34.1908
37.01278
39.50048
41.67791
43.56612
45.18643
46.56051
47.71016
48.67126
49.4532
50.06431
50.52765
50.87151
51.10201
51.21095
51.19206
51.05194
50.78782
50.38631
49.83812
49.13037
48.24793
47.17382
45.89308
44.39005
42.64502
40.63783
38.34833
35.75624
32.83795
35.64718
38.41618
40.84894
42.97041
44.80301
46.36929
47.69212
48.79409
49.71089
50.45266
51.03059
51.467
51.79
52.00663
52.10801
52.08877
51.95599
51.70548
51.32338
50.79967
50.12238
49.27649
48.24319
47.00617
45.55087
43.85679
41.90256
39.66679
37.1279
34.26145
36.86907
39.59307
41.97735
44.04898
45.83202
47.35015
48.62711
49.6863
50.56337
51.26932
51.81744
52.22976
52.5341
52.73848
52.83288
52.81343
52.68713
52.44887
52.08412
51.58227
50.93222
50.11893
49.1223
47.92455
46.51194
44.86313
42.95606
40.76835
38.27734
35.45749
37.83532
40.54066
42.88967
44.92081
46.66272
48.14067
49.37933
50.40277
51.24641
51.92223
52.44497
52.83693
53.12562
53.31956
53.40815
53.38854
53.26749
53.03957
52.68943
52.20604
51.57891
50.79289
49.82691
48.6621
47.28526
45.67426
43.80654
41.65923
39.20779
36.4261
38.33124
41.26399
43.60039
45.60119
47.31038
48.756
49.96364
50.95809
51.77457
52.42634
52.92798
53.30344
53.57959
53.76486
53.84879
53.8292
53.71251
53.49299
53.15464
52.68607
52.07733
51.31352
50.37308
49.23677
47.89088
46.3115
44.47774
42.36976
39.9532
37.20094
70.52232
41.8281
44.13273
46.10677
47.78961
49.20951
50.39258
51.36413
52.15914
52.7919
53.27694
53.63941
53.906
54.08425
54.16439
54.14471
54.03142
53.81859
53.48976
53.03301
52.43902
51.69362
50.77623
49.66901
48.35558
46.80697
45.01379
42.99193
40.76446
38.03713
70.8024
42.17669
44.48285
46.44186
48.10671
49.50868
50.67459
51.63018
52.41026
53.02987
53.50335
53.85657
54.1164
54.2897
54.36713
54.34744
54.23651
54.02835
53.70625
53.25795
52.67465
51.9435
51.04674
49.97084
48.69516
47.17905
45.43273
43.44353
41.23742
38.52438
70.97044
42.35561
44.65935
46.61009
48.26558
49.65829
50.81536
51.76256
52.53465
53.14731
53.61487
53.96318
54.21951
54.3903
54.46638
54.44667
54.33695
54.13118
53.81256
53.36863
52.79091
52.06731
51.18145
50.12167
48.86413
47.36296
45.63448
43.6588
41.46551
38.76664
70.96577
42.35418
44.6593
46.61033
48.26585
49.65855
50.81562
51.76281
52.53487
53.14741
53.61479
53.96321
54.21962
54.39042
54.46649
54.44678
54.33706
54.1313
53.81268
53.36875
52.79109
52.06778
51.18296
50.12545
48.87033
47.37049
45.64355
43.66889
41.47748
38.7819
70.77596
42.16846
44.48194
46.44258
48.10765
49.50958
50.67539
51.63086
52.4107
53.0296
53.50193
53.85617
54.11663
54.29009
54.36752
54.34782
54.23687
54.02869
53.70658
53.25831
52.67528
51.94543
51.05333
49.988
48.7245
47.21576
45.47943
43.49442
41.29098
38.58896
39.03683
41.80872
44.13045
46.10801
47.79134
49.21122
50.39418
51.36548
52.15961
52.78942
53.26954
53.63665
53.90597
54.08492
54.16514
54.14545
54.03214
53.81928
53.49043
53.03375
52.44032
51.69783
50.79104
49.70881
48.42696
46.89986
45.14299
43.1293
40.75118
38.18349
69.90995
41.27251
43.60425
45.60436
47.31345
48.75899
49.96648
50.96052
51.77518
52.42029
52.91022
53.29699
53.57944
53.76625
53.85037
53.83076
53.71404
53.49447
53.15608
52.68754
52.07934
51.31842
50.38856
49.27722
47.9629
46.405
44.60748
42.50965
40.09276
37.34476
37.85302
40.55025
42.89639
44.92702
46.66887
48.14678
49.38539
50.40863
51.25142
51.92429
52.44206
52.8386
53.12987
53.32439
53.41295
53.3932
53.272
53.04397
52.69372
52.21025
51.58327
50.79846
49.83705
48.68278
47.31808
45.71431
43.85612
41.71144
39.26016
36.47902
36.881
39.60341
41.98717
44.0588
45.84193
47.36014
48.63714
49.6963
50.57313
51.27831
51.82516
52.23842
52.54321
52.74758
52.84183
52.82218
52.69568
52.4572
52.09221
51.59011
50.93989
50.12675
49.13118
47.93599
46.52607
44.87854
42.97253
40.78406
38.29141
35.47257
35.6603
38.42933
40.86226
42.98397
44.81679
46.38327
47.70626
48.80834
49.72514
50.46676
51.04442
51.48087
51.80377
52.0202
52.12136
52.10186
51.96882
51.71801
51.33557
50.8115
50.13384
49.28764
48.2542
47.01733
45.56213
43.86771
41.91218
39.67228
37.12719
34.26495
34.2077
37.03009
39.5182
41.69603
43.58462
45.20527
46.57965
47.72955
48.6908
49.47279
50.08386
50.54715
50.89086
51.12112
51.2298
51.21061
51.07015
50.80563
50.40368
49.85497
49.1467
48.26375
47.18914
45.90791
44.40433
42.65834
40.6483
38.35021
35.74478
32.83615
32.5269
35.40614
37.95317
40.19055
42.1382
43.81636
45.24554
46.44656
47.45558
48.28065
48.92739
49.41961
49.78579
50.03131
50.14786
50.12905
49.9807
49.70151
49.27866
48.70363
47.96264
47.04027
45.92164
44.59347
43.03896
41.23918
39.17432
36.82345
34.1681
31.19861
30.59291
33.53286
36.14297
38.44449
40.45597
42.19626
43.68464
44.94088
46.00179
46.87326
47.55852
48.08199
48.47256
48.73485
48.85961
48.8412
48.68442
48.38929
47.94372
47.34008
46.56355
45.59836
44.43184
43.0528
41.44315
39.58506
37.46042
35.05099
32.33924
29.30757
28.39431
31.39767
34.07392
36.44286
38.52156
40.32741
41.87834
43.19286
44.30892
45.22927
45.95545
46.51161
46.92802
47.20806
47.34173
47.32358
47.15787
46.84584
46.37613
45.74222
44.92795
43.9173
42.69973
41.26676
39.59868
37.67886
35.49064
33.01759
30.24347
27.14955
25.92028
28.98833
31.73233
34.17056
36.3185
38.192
39.80767
41.18241
42.35548
43.3265
44.09499
44.68484
45.12801
45.42658
45.56982
45.55169
45.37677
45.047
44.55224
43.88701
43.03356
41.97562
40.705
39.21612
37.48751
35.50388
33.24995
30.71085
27.87189
24.71537
23.16113
26.29342
29.10511
31.61288
33.83055
35.77231
37.45343
38.88939
40.12005
41.14251
41.95383
42.57767
43.04796
43.36548
43.51898
43.5006
43.31618
42.96821
42.44799
41.75113
40.85789
39.7518
38.42734
36.88162
35.09174
33.0437
30.7236
28.11817
25.21436
21.99599
20.10738
23.3017
26.17931
28.7552
31.04147
33.05062
34.79648
36.29354
37.58102
38.65464
39.50846
40.16576
40.66299
40.99947
41.16338
41.14483
40.95073
40.58457
40.03906
39.31101
38.37824
37.22417
35.84642
34.24404
32.39352
30.28197
27.89684
25.22657
22.25975
18.9819
16.74631
19.99875
22.93881
25.57977
27.93198
30.00614
31.81472
33.37111
34.71397
35.83734
36.73247
37.42219
37.94542
38.30047
38.47511
38.4567
38.25235
37.86839
37.29844
36.54025
35.56908
34.36829
32.93864
31.28126
29.3721
27.19937
24.75193
22.0199
18.99363
15.66033
)
;
        qro             uniform 0;
    }
}


// ************************************************************************* //
