/*--------------------------------*- C++ -*----------------------------------*\
| =========                 |                                                 |
| \\      /  F ield         | OpenFOAM: The Open Source CFD Toolbox           |
|  \\    /   O peration     | Version:  2506                                  |
|   \\  /    A nd           | Website:  www.openfoam.com                      |
|    \\/     M anipulation  |                                                 |
\*---------------------------------------------------------------------------*/
FoamFile
{
    version     2.0;
    format      ascii;
    arch        "LSB;label=32;scalar=64";
    class       volScalarField;
    location    "4000/air";
    object      T;
}
// * * * * * * * * * * * * * * * * * * * * * * * * * * * * * * * * * * * * * //

dimensions      [0 0 0 1 0 0 0];

internalField   nonuniform List<scalar> 
33752
(
300.1437
300.1449
300.1463
300.1478
300.1491
300.1504
300.1516
300.1528
300.1538
300.1548
300.1557
300.1564
300.1569
300.1573
300.1575
300.1575
300.1572
300.1568
300.1563
300.1555
300.1546
300.1536
300.1525
300.1514
300.1501
300.1488
300.1474
300.1459
300.1444
300.1432
300.1449
300.1462
300.1477
300.1492
300.1506
300.1519
300.1532
300.1543
300.1554
300.1564
300.1573
300.158
300.1586
300.159
300.1592
300.1592
300.159
300.1586
300.1579
300.1572
300.1563
300.1552
300.1541
300.1529
300.1516
300.1502
300.1488
300.1473
300.1458
300.1444
300.1464
300.1477
300.1493
300.1508
300.1522
300.1536
300.1549
300.1561
300.1573
300.1584
300.1593
300.1601
300.1607
300.1611
300.1613
300.1613
300.1611
300.1606
300.16
300.1592
300.1582
300.1571
300.1559
300.1546
300.1533
300.1519
300.1504
300.1488
300.1473
300.1459
300.1478
300.1492
300.1508
300.1524
300.1539
300.1553
300.1567
300.158
300.1592
300.1603
300.1614
300.1622
300.1629
300.1634
300.1636
300.1636
300.1634
300.1629
300.1621
300.1612
300.1602
300.159
300.1577
300.1564
300.1549
300.1535
300.152
300.1504
300.1487
300.1473
300.1492
300.1507
300.1523
300.1539
300.1555
300.157
300.1584
300.1598
300.1611
300.1624
300.1635
300.1645
300.1653
300.1658
300.1661
300.1661
300.1658
300.1652
300.1644
300.1634
300.1622
300.1609
300.1595
300.1581
300.1566
300.155
300.1535
300.1518
300.1501
300.1487
300.1506
300.152
300.1537
300.1554
300.157
300.1586
300.1601
300.1616
300.1631
300.1645
300.1658
300.1669
300.1679
300.1685
300.1688
300.1688
300.1685
300.1678
300.1668
300.1657
300.1643
300.1629
300.1614
300.1598
300.1582
300.1565
300.1549
300.1532
300.1515
300.15
300.1518
300.1533
300.1551
300.1568
300.1585
300.1602
300.1618
300.1635
300.1652
300.1668
300.1683
300.1696
300.1707
300.1714
300.1718
300.1718
300.1714
300.1706
300.1695
300.1681
300.1666
300.1649
300.1632
300.1615
300.1597
300.158
300.1563
300.1545
300.1527
300.1512
300.153
300.1545
300.1563
300.1581
300.1599
300.1617
300.1636
300.1654
300.1673
300.1691
300.1709
300.1724
300.1737
300.1746
300.1751
300.1751
300.1746
300.1737
300.1723
300.1707
300.1689
300.167
300.1651
300.1632
300.1613
300.1594
300.1576
300.1557
300.1539
300.1523
300.1541
300.1557
300.1575
300.1594
300.1613
300.1632
300.1653
300.1673
300.1695
300.1716
300.1737
300.1755
300.1771
300.1783
300.1789
300.1789
300.1782
300.1771
300.1754
300.1735
300.1714
300.1692
300.167
300.1648
300.1628
300.1607
300.1588
300.1568
300.1549
300.1533
300.1552
300.1568
300.1586
300.1606
300.1626
300.1647
300.1669
300.1692
300.1716
300.1741
300.1766
300.1788
300.1807
300.1821
300.1828
300.1828
300.1821
300.1806
300.1787
300.1764
300.1739
300.1713
300.1688
300.1664
300.1642
300.162
300.1599
300.1578
300.1559
300.1542
300.1565
300.1578
300.1597
300.1617
300.1638
300.166
300.1684
300.171
300.1737
300.1766
300.1794
300.1821
300.1843
300.186
300.1868
300.1868
300.1859
300.1842
300.1819
300.1792
300.1764
300.1734
300.1706
300.1679
300.1654
300.163
300.1608
300.1586
300.1566
300.1549
300.159
300.1589
300.1605
300.1626
300.1648
300.1672
300.1698
300.1726
300.1756
300.1789
300.1821
300.1851
300.1876
300.1894
300.1904
300.1904
300.1894
300.1875
300.185
300.1819
300.1786
300.1753
300.1721
300.1691
300.1664
300.1638
300.1614
300.159
300.1567
300.1549
300.1595
300.1595
300.1612
300.1633
300.1656
300.1681
300.1709
300.1739
300.1773
300.1808
300.1844
300.1876
300.1904
300.1924
300.1935
300.1935
300.1924
300.1903
300.1875
300.1842
300.1805
300.1768
300.1733
300.17
300.1669
300.1641
300.1613
300.1583
300.1549
300.1527
300.1606
300.1602
300.1617
300.1638
300.1662
300.1688
300.1716
300.1748
300.1784
300.1822
300.186
300.1895
300.1924
300.1947
300.1959
300.1959
300.1946
300.1923
300.1893
300.1858
300.1819
300.1779
300.174
300.1704
300.1669
300.1638
300.1607
300.1574
300.1538
300.1516
300.1611
300.1605
300.162
300.1641
300.1665
300.1691
300.172
300.1753
300.1791
300.183
300.1869
300.1905
300.1936
300.1959
300.1972
300.1972
300.1959
300.1935
300.1903
300.1867
300.1826
300.1785
300.1744
300.1705
300.1669
300.1636
300.1604
300.157
300.1533
300.151
300.1612
300.1606
300.162
300.1641
300.1665
300.1691
300.172
300.1753
300.1791
300.183
300.1869
300.1905
300.1936
300.1959
300.1972
300.1972
300.1959
300.1935
300.1903
300.1867
300.1826
300.1785
300.1744
300.1704
300.1668
300.1635
300.1602
300.1568
300.153
300.1507
300.1608
300.1603
300.1618
300.1638
300.1662
300.1688
300.1716
300.1748
300.1784
300.1822
300.1861
300.1895
300.1924
300.1947
300.1959
300.1959
300.1946
300.1923
300.1893
300.1858
300.1818
300.1779
300.1739
300.17
300.1664
300.1632
300.16
300.1566
300.153
300.1507
300.1592
300.1597
300.1613
300.1633
300.1656
300.1681
300.1709
300.1739
300.1773
300.1809
300.1845
300.1877
300.1904
300.1924
300.1935
300.1935
300.1924
300.1903
300.1875
300.1841
300.1804
300.1767
300.173
300.1694
300.1659
300.1628
300.1597
300.1567
300.154
300.1513
300.1588
300.1589
300.1605
300.1626
300.1648
300.1672
300.1698
300.1726
300.1757
300.179
300.1823
300.1853
300.1877
300.1894
300.1904
300.1904
300.1894
300.1875
300.185
300.1819
300.1785
300.1751
300.1718
300.1685
300.1654
300.1625
300.1597
300.1572
300.1549
300.1531
300.1564
300.1578
300.1596
300.1616
300.1638
300.166
300.1684
300.171
300.1737
300.1767
300.1795
300.1821
300.1843
300.186
300.1868
300.1868
300.1859
300.1842
300.1819
300.1792
300.1763
300.1733
300.1704
300.1675
300.1648
300.1623
300.1599
300.1577
300.1556
300.1539
300.1552
300.1568
300.1586
300.1606
300.1626
300.1647
300.1669
300.1692
300.1716
300.1741
300.1766
300.1788
300.1807
300.1821
300.1828
300.1828
300.182
300.1806
300.1787
300.1764
300.1738
300.1712
300.1687
300.1662
300.1639
300.1616
300.1595
300.1575
300.1555
300.1538
300.1541
300.1557
300.1575
300.1594
300.1613
300.1632
300.1652
300.1673
300.1694
300.1716
300.1737
300.1755
300.1771
300.1783
300.1789
300.1788
300.1782
300.177
300.1754
300.1734
300.1713
300.1691
300.1669
300.1647
300.1626
300.1606
300.1586
300.1567
300.1549
300.1532
300.153
300.1545
300.1563
300.1581
300.1599
300.1617
300.1636
300.1654
300.1673
300.1691
300.1709
300.1724
300.1737
300.1746
300.1751
300.1751
300.1746
300.1736
300.1723
300.1707
300.1689
300.167
300.165
300.1631
300.1612
300.1593
300.1575
300.1557
300.154
300.1524
300.1518
300.1533
300.1551
300.1568
300.1585
300.1602
300.1618
300.1635
300.1652
300.1668
300.1682
300.1696
300.1706
300.1714
300.1718
300.1717
300.1713
300.1705
300.1694
300.1681
300.1665
300.1649
300.1632
300.1614
300.1597
300.1579
300.1562
300.1545
300.1527
300.1512
300.1506
300.152
300.1537
300.1554
300.157
300.1586
300.1601
300.1616
300.1631
300.1645
300.1658
300.1669
300.1678
300.1685
300.1688
300.1688
300.1684
300.1677
300.1668
300.1656
300.1643
300.1628
300.1613
300.1597
300.1581
300.1565
300.1548
300.1531
300.1514
300.1499
300.1492
300.1507
300.1523
300.1539
300.1555
300.1569
300.1584
300.1598
300.1611
300.1624
300.1635
300.1645
300.1653
300.1658
300.1661
300.1661
300.1658
300.1652
300.1644
300.1633
300.1622
300.1609
300.1595
300.158
300.1565
300.155
300.1534
300.1518
300.1501
300.1486
300.1478
300.1492
300.1508
300.1524
300.1539
300.1553
300.1567
300.158
300.1592
300.1603
300.1613
300.1622
300.1629
300.1634
300.1636
300.1636
300.1633
300.1628
300.1621
300.1612
300.1601
300.1589
300.1576
300.1563
300.1549
300.1534
300.1519
300.1503
300.1487
300.1472
300.1464
300.1477
300.1493
300.1508
300.1522
300.1536
300.1549
300.1561
300.1573
300.1583
300.1593
300.16
300.1607
300.1611
300.1613
300.1613
300.161
300.1606
300.1599
300.1591
300.1581
300.157
300.1558
300.1546
300.1532
300.1518
300.1503
300.1488
300.1472
300.1458
300.1449
300.1462
300.1477
300.1492
300.1506
300.1519
300.1531
300.1543
300.1554
300.1564
300.1573
300.158
300.1586
300.159
300.1592
300.1591
300.1589
300.1585
300.1579
300.1571
300.1562
300.1552
300.154
300.1528
300.1515
300.1501
300.1487
300.1472
300.1457
300.1444
300.1437
300.1449
300.1463
300.1478
300.1491
300.1504
300.1516
300.1528
300.1538
300.1548
300.1556
300.1563
300.1569
300.1572
300.1574
300.1574
300.1572
300.1568
300.1562
300.1555
300.1546
300.1536
300.1525
300.1513
300.15
300.1487
300.1473
300.1458
300.1444
300.1432
300.118
300.1185
300.1191
300.1199
300.1208
300.1216
300.1225
300.1234
300.1242
300.1249
300.1256
300.1262
300.1267
300.127
300.1271
300.1271
300.127
300.1266
300.1262
300.1256
300.1249
300.1241
300.1232
300.1224
300.1215
300.1206
300.1197
300.1189
300.1182
300.1178
300.1185
300.1189
300.1197
300.1205
300.1213
300.1222
300.1231
300.124
300.1249
300.1257
300.1264
300.127
300.1275
300.1278
300.128
300.128
300.1278
300.1274
300.1269
300.1263
300.1256
300.1248
300.1239
300.123
300.1221
300.1212
300.1203
300.1194
300.1187
300.1182
300.1192
300.1197
300.1204
300.1213
300.1222
300.1231
300.1241
300.125
300.1259
300.1268
300.1275
300.1282
300.1287
300.1291
300.1293
300.1293
300.1291
300.1287
300.1281
300.1275
300.1267
300.1258
300.1249
300.1239
300.1229
300.122
300.1211
300.1202
300.1194
300.1189
300.12
300.1205
300.1213
300.1222
300.1232
300.1242
300.1252
300.1262
300.1272
300.1281
300.129
300.1297
300.1303
300.1307
300.1309
300.1309
300.1307
300.1302
300.1296
300.1289
300.128
300.1271
300.126
300.125
300.124
300.1229
300.122
300.121
300.1202
300.1197
300.1208
300.1214
300.1222
300.1232
300.1242
300.1253
300.1264
300.1275
300.1286
300.1296
300.1306
300.1315
300.1321
300.1326
300.1328
300.1328
300.1326
300.1321
300.1314
300.1305
300.1295
300.1285
300.1273
300.1262
300.1251
300.124
300.1229
300.122
300.1211
300.1205
300.1217
300.1223
300.1232
300.1242
300.1253
300.1265
300.1277
300.1289
300.1302
300.1314
300.1325
300.1334
300.1342
300.1348
300.1351
300.1351
300.1348
300.1342
300.1334
300.1324
300.1312
300.13
300.1288
300.1275
300.1262
300.1251
300.1239
300.1229
300.122
300.1214
300.1226
300.1232
300.1241
300.1252
300.1264
300.1277
300.129
300.1304
300.1318
300.1332
300.1345
300.1357
300.1366
300.1373
300.1376
300.1376
300.1373
300.1366
300.1356
300.1344
300.1331
300.1317
300.1303
300.1288
300.1275
300.1261
300.1249
300.1238
300.1229
300.1222
300.1235
300.1241
300.1251
300.1263
300.1276
300.129
300.1305
300.132
300.1336
300.1352
300.1368
300.1381
300.1393
300.1401
300.1405
300.1405
300.1401
300.1392
300.1381
300.1367
300.1351
300.1335
300.1318
300.1302
300.1287
300.1272
300.1259
300.1247
300.1237
300.1231
300.1243
300.125
300.126
300.1273
300.1287
300.1302
300.1319
300.1337
300.1355
300.1374
300.1392
300.1408
300.1422
300.1431
300.1437
300.1437
300.1431
300.1421
300.1407
300.1391
300.1372
300.1353
300.1334
300.1316
300.1299
300.1283
300.1269
300.1256
300.1245
300.1238
300.1252
300.1259
300.1269
300.1282
300.1297
300.1314
300.1333
300.1353
300.1374
300.1395
300.1416
300.1436
300.1452
300.1464
300.147
300.147
300.1464
300.1452
300.1435
300.1415
300.1394
300.1372
300.135
300.133
300.1311
300.1293
300.1278
300.1264
300.1252
300.1245
300.126
300.1267
300.1277
300.1291
300.1307
300.1326
300.1346
300.1368
300.1392
300.1417
300.1441
300.1463
300.1483
300.1497
300.1504
300.1504
300.1496
300.1482
300.1463
300.144
300.1415
300.139
300.1365
300.1343
300.1321
300.1302
300.1285
300.127
300.1258
300.125
300.1269
300.1274
300.1285
300.1299
300.1316
300.1336
300.1358
300.1382
300.1408
300.1436
300.1464
300.1489
300.1512
300.1528
300.1537
300.1537
300.1528
300.1511
300.1489
300.1462
300.1434
300.1406
300.1379
300.1354
300.133
300.131
300.1291
300.1275
300.1261
300.1253
300.1274
300.1279
300.129
300.1305
300.1323
300.1344
300.1367
300.1394
300.1422
300.1452
300.1483
300.1512
300.1537
300.1555
300.1565
300.1565
300.1555
300.1536
300.1511
300.1482
300.145
300.1419
300.139
300.1362
300.1337
300.1314
300.1294
300.1276
300.126
300.1251
300.1279
300.1284
300.1294
300.1309
300.1328
300.1349
300.1374
300.1402
300.1432
300.1464
300.1497
300.1528
300.1555
300.1575
300.1586
300.1586
300.1575
300.1554
300.1527
300.1496
300.1462
300.1429
300.1397
300.1368
300.1341
300.1317
300.1295
300.1276
300.1259
300.1249
300.1282
300.1286
300.1296
300.1312
300.133
300.1352
300.1378
300.1406
300.1437
300.1471
300.1505
300.1537
300.1565
300.1586
300.1597
300.1597
300.1585
300.1564
300.1536
300.1503
300.1468
300.1434
300.1401
300.137
300.1342
300.1317
300.1295
300.1275
300.1258
300.1248
300.1282
300.1286
300.1296
300.1312
300.133
300.1352
300.1378
300.1406
300.1437
300.1471
300.1505
300.1537
300.1565
300.1586
300.1597
300.1597
300.1585
300.1564
300.1536
300.1503
300.1468
300.1434
300.1401
300.137
300.1342
300.1317
300.1294
300.1274
300.1257
300.1247
300.1279
300.1284
300.1294
300.1309
300.1328
300.1349
300.1374
300.1402
300.1432
300.1464
300.1497
300.1528
300.1555
300.1575
300.1586
300.1586
300.1575
300.1554
300.1527
300.1495
300.1462
300.1428
300.1396
300.1366
300.1339
300.1314
300.1292
300.1273
300.1256
300.1246
300.1274
300.1279
300.129
300.1305
300.1323
300.1344
300.1367
300.1394
300.1422
300.1453
300.1483
300.1512
300.1537
300.1555
300.1565
300.1565
300.1555
300.1536
300.1511
300.1481
300.145
300.1419
300.1388
300.136
300.1334
300.131
300.1289
300.1271
300.1256
300.1246
300.1268
300.1274
300.1285
300.1299
300.1316
300.1336
300.1358
300.1382
300.1409
300.1436
300.1464
300.149
300.1512
300.1528
300.1537
300.1536
300.1528
300.1511
300.1488
300.1462
300.1434
300.1405
300.1377
300.1351
300.1327
300.1305
300.1286
300.1269
300.1256
300.1247
300.126
300.1266
300.1277
300.1291
300.1307
300.1326
300.1346
300.1368
300.1392
300.1417
300.1441
300.1464
300.1483
300.1497
300.1504
300.1504
300.1496
300.1482
300.1462
300.1439
300.1414
300.1389
300.1364
300.1341
300.1319
300.1299
300.1282
300.1266
300.1254
300.1246
300.1252
300.1258
300.1269
300.1282
300.1297
300.1314
300.1333
300.1353
300.1374
300.1395
300.1416
300.1436
300.1452
300.1464
300.147
300.147
300.1463
300.1451
300.1435
300.1415
300.1393
300.1371
300.1349
300.1329
300.1309
300.1291
300.1275
300.1262
300.125
300.1243
300.1243
300.125
300.126
300.1273
300.1287
300.1302
300.1319
300.1336
300.1355
300.1374
300.1392
300.1408
300.1421
300.1431
300.1436
300.1436
300.1431
300.1421
300.1407
300.139
300.1372
300.1353
300.1334
300.1315
300.1298
300.1282
300.1267
300.1255
300.1244
300.1237
300.1235
300.1241
300.1251
300.1263
300.1276
300.129
300.1304
300.132
300.1336
300.1352
300.1368
300.1381
300.1393
300.1401
300.1405
300.1405
300.14
300.1392
300.138
300.1366
300.1351
300.1334
300.1318
300.1302
300.1286
300.1272
300.1258
300.1247
300.1237
300.123
300.1226
300.1232
300.1241
300.1252
300.1264
300.1277
300.129
300.1304
300.1318
300.1332
300.1345
300.1357
300.1366
300.1373
300.1376
300.1376
300.1372
300.1365
300.1356
300.1344
300.1331
300.1316
300.1302
300.1288
300.1274
300.1261
300.1249
300.1238
300.1228
300.1222
300.1217
300.1223
300.1232
300.1242
300.1253
300.1265
300.1277
300.1289
300.1301
300.1313
300.1324
300.1334
300.1342
300.1348
300.1351
300.135
300.1347
300.1342
300.1333
300.1323
300.1312
300.13
300.1287
300.1274
300.1262
300.125
300.1239
300.1228
300.1219
300.1213
300.1208
300.1214
300.1222
300.1232
300.1242
300.1253
300.1264
300.1275
300.1286
300.1296
300.1306
300.1314
300.1321
300.1326
300.1328
300.1328
300.1325
300.132
300.1313
300.1305
300.1295
300.1284
300.1273
300.1261
300.125
300.1239
300.1229
300.1219
300.1211
300.1205
300.12
300.1205
300.1213
300.1222
300.1232
300.1242
300.1252
300.1262
300.1272
300.1281
300.1289
300.1297
300.1303
300.1307
300.1309
300.1309
300.1306
300.1302
300.1296
300.1288
300.128
300.127
300.126
300.1249
300.1239
300.1229
300.1219
300.121
300.1202
300.1196
300.1192
300.1197
300.1204
300.1213
300.1222
300.1231
300.1241
300.125
300.1259
300.1267
300.1275
300.1282
300.1287
300.129
300.1292
300.1292
300.129
300.1286
300.1281
300.1274
300.1266
300.1257
300.1248
300.1239
300.1229
300.1219
300.121
300.1201
300.1194
300.1189
300.1185
300.119
300.1197
300.1205
300.1213
300.1222
300.1231
300.124
300.1248
300.1256
300.1263
300.1269
300.1274
300.1278
300.1279
300.1279
300.1277
300.1274
300.1269
300.1262
300.1255
300.1247
300.1238
300.1229
300.122
300.1211
300.1202
300.1194
300.1187
300.1182
300.118
300.1185
300.1192
300.1199
300.1208
300.1216
300.1225
300.1234
300.1242
300.1249
300.1256
300.1262
300.1266
300.1269
300.1271
300.1271
300.1269
300.1266
300.1261
300.1255
300.1248
300.124
300.1232
300.1223
300.1214
300.1205
300.1197
300.1189
300.1182
300.1177
300.1092
300.1095
300.1099
300.1105
300.1112
300.1119
300.1126
300.1134
300.1141
300.1148
300.1154
300.1159
300.1163
300.1166
300.1168
300.1168
300.1166
300.1163
300.1159
300.1153
300.1147
300.114
300.1133
300.1125
300.1118
300.1111
300.1104
300.1098
300.1093
300.1091
300.1095
300.1098
300.1102
300.1108
300.1115
300.1122
300.113
300.1138
300.1145
300.1152
300.1159
300.1164
300.1169
300.1172
300.1173
300.1173
300.1172
300.1169
300.1164
300.1158
300.1152
300.1145
300.1137
300.1129
300.1121
300.1114
300.1107
300.1101
300.1096
300.1093
300.11
300.1103
300.1107
300.1114
300.1121
300.1129
300.1137
300.1145
300.1153
300.1161
300.1168
300.1174
300.1178
300.1182
300.1184
300.1184
300.1182
300.1178
300.1173
300.1167
300.116
300.1152
300.1144
300.1136
300.1127
300.112
300.1112
300.1106
300.1101
300.1098
300.1105
300.1109
300.1114
300.1121
300.1128
300.1136
300.1145
300.1154
300.1163
300.1172
300.1179
300.1186
300.1192
300.1195
300.1197
300.1197
300.1195
300.1191
300.1186
300.1179
300.1171
300.1162
300.1153
300.1144
300.1135
300.1127
300.1119
300.1112
300.1107
300.1104
300.1112
300.1115
300.1121
300.1128
300.1137
300.1146
300.1155
300.1165
300.1175
300.1185
300.1194
300.1202
300.1208
300.1212
300.1215
300.1214
300.1212
300.1208
300.1201
300.1193
300.1184
300.1174
300.1164
300.1154
300.1144
300.1135
300.1127
300.1119
300.1114
300.111
300.1119
300.1123
300.1129
300.1137
300.1146
300.1156
300.1166
300.1178
300.1189
300.12
300.121
300.122
300.1227
300.1232
300.1235
300.1235
300.1232
300.1227
300.1219
300.121
300.1199
300.1188
300.1176
300.1165
300.1154
300.1144
300.1135
300.1127
300.1121
300.1117
300.1127
300.1131
300.1137
300.1146
300.1155
300.1167
300.1179
300.1191
300.1204
300.1217
300.1229
300.124
300.1249
300.1255
300.1259
300.1259
300.1255
300.1249
300.124
300.1229
300.1216
300.1203
300.119
300.1177
300.1165
300.1154
300.1143
300.1135
300.1128
300.1124
300.1134
300.1139
300.1146
300.1155
300.1166
300.1178
300.1191
300.1206
300.1221
300.1236
300.125
300.1263
300.1274
300.1281
300.1285
300.1285
300.1281
300.1273
300.1263
300.1249
300.1235
300.122
300.1204
300.119
300.1176
300.1163
300.1152
300.1143
300.1136
300.1131
300.1142
300.1146
300.1154
300.1164
300.1176
300.1189
300.1204
300.1221
300.1238
300.1256
300.1273
300.1288
300.1301
300.131
300.1315
300.1315
300.131
300.13
300.1287
300.1272
300.1255
300.1237
300.1219
300.1203
300.1187
300.1173
300.1161
300.115
300.1143
300.1138
300.1149
300.1154
300.1162
300.1172
300.1185
300.1201
300.1217
300.1236
300.1256
300.1276
300.1296
300.1314
300.1329
300.134
300.1346
300.1346
300.134
300.1329
300.1313
300.1295
300.1275
300.1254
300.1234
300.1215
300.1198
300.1182
300.1169
300.1158
300.1149
300.1144
300.1156
300.1161
300.1169
300.118
300.1195
300.1211
300.123
300.1251
300.1273
300.1296
300.1319
300.134
300.1358
300.1371
300.1378
300.1378
300.1371
300.1358
300.1339
300.1318
300.1295
300.1271
300.1248
300.1227
300.1208
300.1191
300.1176
300.1164
300.1155
300.1149
300.1162
300.1167
300.1175
300.1187
300.1203
300.122
300.1241
300.1264
300.1288
300.1314
300.134
300.1364
300.1385
300.14
300.1408
300.1408
300.14
300.1385
300.1364
300.1339
300.1313
300.1286
300.1261
300.1238
300.1216
300.1198
300.1182
300.1168
300.1158
300.1153
300.1167
300.1172
300.1181
300.1193
300.1209
300.1228
300.125
300.1274
300.1301
300.133
300.1358
300.1385
300.1408
300.1425
300.1434
300.1434
300.1425
300.1408
300.1384
300.1357
300.1328
300.1299
300.1271
300.1246
300.1223
300.1203
300.1186
300.1171
300.1161
300.1154
300.1171
300.1175
300.1184
300.1197
300.1214
300.1233
300.1256
300.1282
300.1311
300.1341
300.1371
300.14
300.1425
300.1444
300.1454
300.1454
300.1444
300.1425
300.14
300.137
300.1339
300.1308
300.1279
300.1252
300.1227
300.1206
300.1188
300.1173
300.1162
300.1155
300.1172
300.1177
300.1186
300.1199
300.1216
300.1236
300.1259
300.1286
300.1315
300.1347
300.1378
300.1408
300.1435
300.1454
300.1464
300.1464
300.1454
300.1434
300.1408
300.1377
300.1345
300.1313
300.1282
300.1255
300.123
300.1208
300.1189
300.1173
300.1162
300.1155
300.1172
300.1177
300.1186
300.1199
300.1216
300.1236
300.1259
300.1286
300.1315
300.1347
300.1378
300.1408
300.1435
300.1454
300.1464
300.1464
300.1454
300.1434
300.1408
300.1377
300.1345
300.1313
300.1282
300.1254
300.1229
300.1207
300.1188
300.1173
300.1161
300.1155
300.1171
300.1175
300.1184
300.1197
300.1214
300.1233
300.1256
300.1282
300.1311
300.1341
300.1371
300.14
300.1425
300.1444
300.1454
300.1454
300.1444
300.1425
300.1399
300.137
300.1339
300.1308
300.1278
300.1251
300.1226
300.1205
300.1187
300.1171
300.116
300.1154
300.1167
300.1172
300.1181
300.1193
300.1209
300.1228
300.125
300.1274
300.1301
300.133
300.1358
300.1385
300.1408
300.1425
300.1434
300.1434
300.1425
300.1408
300.1384
300.1357
300.1328
300.1299
300.1271
300.1245
300.1222
300.1201
300.1184
300.1169
300.1158
300.1152
300.1162
300.1167
300.1175
300.1187
300.1203
300.122
300.1241
300.1264
300.1288
300.1314
300.134
300.1364
300.1385
300.14
300.1408
300.1408
300.14
300.1384
300.1363
300.1339
300.1312
300.1286
300.126
300.1236
300.1215
300.1196
300.1179
300.1166
300.1156
300.115
300.1156
300.1161
300.1169
300.118
300.1195
300.1211
300.123
300.125
300.1273
300.1296
300.1319
300.134
300.1358
300.1371
300.1378
300.1378
300.1371
300.1357
300.1339
300.1317
300.1294
300.1271
300.1248
300.1226
300.1206
300.1189
300.1174
300.1162
300.1152
300.1147
300.1149
300.1154
300.1162
300.1172
300.1185
300.1201
300.1217
300.1236
300.1256
300.1276
300.1296
300.1314
300.1329
300.134
300.1346
300.1346
300.134
300.1329
300.1313
300.1295
300.1274
300.1254
300.1233
300.1214
300.1197
300.1181
300.1167
300.1156
300.1148
300.1143
300.1142
300.1146
300.1154
300.1164
300.1176
300.1189
300.1204
300.1221
300.1238
300.1256
300.1272
300.1288
300.1301
300.131
300.1315
300.1315
300.131
300.13
300.1287
300.1271
300.1254
300.1236
300.1219
300.1202
300.1186
300.1172
300.116
300.1149
300.1142
300.1137
300.1135
300.1139
300.1146
300.1155
300.1166
300.1178
300.1191
300.1206
300.1221
300.1236
300.125
300.1263
300.1274
300.1281
300.1285
300.1285
300.1281
300.1273
300.1262
300.1249
300.1234
300.1219
300.1204
300.1189
300.1175
300.1163
300.1151
300.1142
300.1135
300.1131
300.1127
300.1131
300.1137
300.1146
300.1155
300.1167
300.1179
300.1191
300.1204
300.1217
300.1229
300.124
300.1249
300.1255
300.1258
300.1258
300.1255
300.1248
300.1239
300.1228
300.1216
300.1203
300.1189
300.1176
300.1164
300.1153
300.1143
300.1134
300.1128
300.1124
300.1119
300.1123
300.1129
300.1137
300.1146
300.1156
300.1166
300.1178
300.1189
300.12
300.121
300.1219
300.1227
300.1232
300.1235
300.1235
300.1232
300.1226
300.1219
300.1209
300.1199
300.1187
300.1176
300.1165
300.1154
300.1143
300.1134
300.1126
300.112
300.1117
300.1112
300.1116
300.1121
300.1128
300.1137
300.1146
300.1155
300.1165
300.1175
300.1185
300.1193
300.1201
300.1208
300.1212
300.1214
300.1214
300.1212
300.1207
300.1201
300.1193
300.1184
300.1174
300.1164
300.1153
300.1144
300.1134
300.1126
300.1119
300.1113
300.111
300.1106
300.1109
300.1114
300.1121
300.1128
300.1136
300.1145
300.1154
300.1163
300.1171
300.1179
300.1186
300.1191
300.1195
300.1197
300.1197
300.1195
300.1191
300.1185
300.1178
300.117
300.1162
300.1153
300.1144
300.1135
300.1126
300.1118
300.1112
300.1106
300.1103
300.11
300.1103
300.1108
300.1114
300.1121
300.1129
300.1137
300.1145
300.1153
300.116
300.1167
300.1173
300.1178
300.1182
300.1183
300.1183
300.1181
300.1178
300.1173
300.1167
300.1159
300.1152
300.1143
300.1135
300.1127
300.1119
300.1112
300.1105
300.11
300.1097
300.1095
300.1098
300.1103
300.1108
300.1115
300.1122
300.113
300.1138
300.1145
300.1152
300.1159
300.1164
300.1169
300.1172
300.1173
300.1173
300.1171
300.1168
300.1164
300.1158
300.1151
300.1144
300.1136
300.1129
300.1121
300.1113
300.1107
300.1101
300.1096
300.1093
300.1092
300.1095
300.11
300.1105
300.1112
300.1119
300.1126
300.1134
300.1141
300.1148
300.1154
300.1159
300.1163
300.1166
300.1167
300.1167
300.1166
300.1163
300.1158
300.1153
300.1147
300.114
300.1132
300.1125
300.1117
300.111
300.1103
300.1098
300.1093
300.109
300.1039
300.1041
300.1045
300.105
300.1055
300.1061
300.1068
300.1075
300.1081
300.1087
300.1093
300.1098
300.1102
300.1105
300.1106
300.1106
300.1105
300.1102
300.1098
300.1093
300.1087
300.1081
300.1074
300.1067
300.1061
300.1054
300.1049
300.1044
300.104
300.1038
300.1041
300.1043
300.1047
300.1052
300.1058
300.1064
300.1071
300.1078
300.1085
300.1091
300.1097
300.1102
300.1107
300.1109
300.1111
300.1111
300.1109
300.1106
300.1102
300.1097
300.1091
300.1084
300.1077
300.107
300.1063
300.1057
300.1051
300.1046
300.1042
300.104
300.1045
300.1047
300.1051
300.1056
300.1062
300.1069
300.1076
300.1083
300.1091
300.1098
300.1105
300.111
300.1115
300.1118
300.112
300.112
300.1118
300.1115
300.111
300.1104
300.1098
300.109
300.1083
300.1075
300.1068
300.1061
300.1055
300.105
300.1046
300.1044
300.105
300.1052
300.1056
300.1061
300.1068
300.1075
300.1083
300.1091
300.11
300.1108
300.1115
300.1121
300.1127
300.113
300.1132
300.1132
300.113
300.1126
300.1121
300.1115
300.1107
300.1099
300.1091
300.1082
300.1074
300.1067
300.106
300.1055
300.1051
300.1048
300.1055
300.1058
300.1062
300.1068
300.1075
300.1083
300.1092
300.1101
300.111
300.112
300.1128
300.1135
300.1142
300.1146
300.1148
300.1148
300.1146
300.1141
300.1135
300.1128
300.1119
300.111
300.11
300.1091
300.1082
300.1074
300.1067
300.1061
300.1056
300.1054
300.1062
300.1064
300.1069
300.1075
300.1083
300.1092
300.1102
300.1113
300.1123
300.1134
300.1144
300.1152
300.116
300.1165
300.1167
300.1167
300.1165
300.1159
300.1152
300.1143
300.1133
300.1123
300.1112
300.1101
300.1091
300.1082
300.1074
300.1067
300.1063
300.106
300.1068
300.1071
300.1076
300.1083
300.1092
300.1102
300.1113
300.1125
300.1138
300.115
300.1162
300.1172
300.1181
300.1187
300.119
300.119
300.1187
300.1181
300.1172
300.1161
300.1149
300.1137
300.1124
300.1112
300.1101
300.1091
300.1082
300.1075
300.1069
300.1066
300.1075
300.1078
300.1084
300.1092
300.1101
300.1113
300.1125
300.1139
300.1153
300.1168
300.1182
300.1194
300.1205
300.1212
300.1216
300.1216
300.1212
300.1205
300.1194
300.1181
300.1167
300.1152
300.1138
300.1124
300.1111
300.11
300.109
300.1082
300.1076
300.1073
300.1082
300.1085
300.1091
300.11
300.1111
300.1123
300.1138
300.1153
300.117
300.1187
300.1203
300.1219
300.1231
300.124
300.1245
300.1245
300.124
300.1231
300.1218
300.1203
300.1186
300.1169
300.1152
300.1136
300.1122
300.1109
300.1098
300.1089
300.1082
300.1079
300.1089
300.1092
300.1099
300.1108
300.112
300.1134
300.115
300.1168
300.1187
300.1207
300.1226
300.1244
300.1259
300.127
300.1276
300.1276
300.127
300.1259
300.1244
300.1226
300.1206
300.1186
300.1167
300.1148
300.1132
300.1118
300.1105
300.1096
300.1089
300.1085
300.1095
300.1098
300.1106
300.1116
300.1129
300.1144
300.1162
300.1182
300.1204
300.1226
300.1249
300.127
300.1288
300.1301
300.1308
300.1308
300.1301
300.1288
300.127
300.1248
300.1225
300.1202
300.118
300.116
300.1142
300.1126
300.1112
300.1102
300.1094
300.109
300.11
300.1104
300.1112
300.1122
300.1136
300.1153
300.1173
300.1195
300.1219
300.1244
300.127
300.1294
300.1315
300.133
300.1339
300.1338
300.133
300.1315
300.1294
300.1269
300.1243
300.1217
300.1193
300.117
300.115
300.1133
300.1118
300.1106
300.1098
300.1094
300.1104
300.1108
300.1116
300.1128
300.1142
300.116
300.1181
300.1205
300.1232
300.126
300.1288
300.1315
300.1339
300.1356
300.1365
300.1365
300.1356
300.1338
300.1315
300.1287
300.1258
300.123
300.1203
300.1178
300.1157
300.1138
300.1122
300.111
300.1101
300.1096
300.1107
300.1112
300.112
300.1131
300.1147
300.1165
300.1187
300.1213
300.1241
300.1271
300.1301
300.133
300.1356
300.1375
300.1385
300.1385
300.1374
300.1355
300.133
300.13
300.1269
300.1239
300.121
300.1184
300.1161
300.1142
300.1125
300.1112
300.1103
300.1098
300.1109
300.1113
300.1121
300.1133
300.1149
300.1168
300.1191
300.1217
300.1246
300.1277
300.1308
300.1339
300.1365
300.1385
300.1395
300.1395
300.1384
300.1365
300.1338
300.1307
300.1275
300.1244
300.1214
300.1187
300.1163
300.1143
300.1126
300.1113
300.1104
300.1099
300.1109
300.1113
300.1121
300.1133
300.1149
300.1168
300.1191
300.1217
300.1246
300.1277
300.1308
300.1339
300.1365
300.1385
300.1395
300.1395
300.1384
300.1365
300.1338
300.1307
300.1275
300.1243
300.1214
300.1187
300.1163
300.1143
300.1126
300.1113
300.1103
300.1098
300.1107
300.1112
300.112
300.1131
300.1147
300.1165
300.1187
300.1213
300.1241
300.1271
300.1301
300.133
300.1356
300.1375
300.1384
300.1384
300.1374
300.1355
300.133
300.13
300.1269
300.1239
300.121
300.1184
300.1161
300.1141
300.1124
300.1111
300.1102
300.1097
300.1104
300.1108
300.1116
300.1128
300.1142
300.116
300.1181
300.1205
300.1232
300.126
300.1288
300.1315
300.1338
300.1356
300.1365
300.1365
300.1355
300.1338
300.1314
300.1287
300.1258
300.1229
300.1202
300.1178
300.1156
300.1137
300.1121
300.1109
300.11
300.1095
300.11
300.1104
300.1112
300.1122
300.1136
300.1153
300.1173
300.1195
300.1219
300.1244
300.127
300.1294
300.1315
300.133
300.1338
300.1338
300.133
300.1315
300.1294
300.1269
300.1243
300.1217
300.1192
300.1169
300.1149
300.1131
300.1117
300.1105