/*--------------------------------*- C++ -*----------------------------------*\
| =========                 |                                                 |
| \\      /  F ield         | OpenFOAM: The Open Source CFD Toolbox           |
|  \\    /   O peration     | Version:  2506                                  |
|   \\  /    A nd           | Website:  www.openfoam.com                      |
|    \\/     M anipulation  |                                                 |
\*---------------------------------------------------------------------------*/
FoamFile
{
    version     2.0;
    format      ascii;
    arch        "LSB;label=32;scalar=64";
    class       volScalarField;
    location    "3000/air";
    object      alphat;
}
// * * * * * * * * * * * * * * * * * * * * * * * * * * * * * * * * * * * * * //

dimensions      [1 -1 -1 0 0 0 0];

internalField   nonuniform List<scalar> 
33752
(
0.009531446
0.009491498
0.009456014
0.009428664
0.009406556
0.009387922
0.009371756
0.009357458
0.009344733
0.009333517
0.00932392
0.009316167
0.00931054
0.009307326
0.00930678
0.009309033
0.009314069
0.009321768
0.009331903
0.00934418
0.009358292
0.00937398
0.009391088
0.009409621
0.00942981
0.009452193
0.009477734
0.009508202
0.009546588
0.009589104
0.009491051
0.009428602
0.009380269
0.009346367
0.009320832
0.009300326
0.009283006
0.009267853
0.009254374
0.009242431
0.009232116
0.009223678
0.00921744
0.009213738
0.009212885
0.009215023
0.009220114
0.00922802
0.009238481
0.009251162
0.009265721
0.009281879
0.0092995
0.009318674
0.009339841
0.009363983
0.009392927
0.009430061
0.009481604
0.009547106
0.00945503
0.009379694
0.0093197
0.009277796
0.00924698
0.009222857
0.009202839
0.009185449
0.009169958
0.009156124
0.009144035
0.00913399
0.009126393
0.009121675
0.009120225
0.009122221
0.009127629
0.009136271
0.009147815
0.009161842
0.009177931
0.009195755
0.009215191
0.009236436
0.009260179
0.00928787
0.009322103
0.009367331
0.009430719
0.009509339
0.009426945
0.00934505
0.009277049
0.009228252
0.009191901
0.009163322
0.009139542
0.009118777
0.009100113
0.009083247
0.009068299
0.009055671
0.009045909
0.009039603
0.009037261
0.009039121
0.009045162
0.00905514
0.009068606
0.009084997
0.009103751
0.009124442
0.009146915
0.009171433
0.009198871
0.009230989
0.009270762
0.009322924
0.009394405
0.009479693
0.009403901
0.009318608
0.009245335
0.009190999
0.009149339
0.009115824
0.009087415
0.009062197
0.009039169
0.009018029
0.008998992
0.008982639
0.008969746
0.008961153
0.008957554
0.008959276
0.008966322
0.008978347
0.008994717
0.009014637
0.009037322
0.009062166
0.009088916
0.009117829
0.009149859
0.009186889
0.009231957
0.00928966
0.009366451
0.009455181
0.00938415
0.009297042
0.009220186
0.009161402
0.009114803
0.009076099
0.009042351
0.009011665
0.00898306
0.008956314
0.008931819
0.008910427
0.008893275
0.008881574
0.008876245
0.008877817
0.008886305
0.008901212
0.008921625
0.008946403
0.008974417
0.009004782
0.009037056
0.009071404
0.009108747
0.009150939
0.00920092
0.009263064
0.009343451
0.009434011
0.009366715
0.009278531
0.009199036
0.009136515
0.009085292
0.009041248
0.009001569
0.008964459
0.008929051
0.008895292
0.008863836
0.008835922
0.008813256
0.008797426
0.008789809
0.008791198
0.008801635
0.0088204
0.008846168
0.008877296
0.008912168
0.008949496
0.008988549
0.009029301
0.009072551
0.009120058
0.009174645
0.00924052
0.009323558
0.009415193
0.009351015
0.009262072
0.009180422
0.009114575
0.009058922
0.009009417
0.008963313
0.00891891
0.008875509
0.008833314
0.008793314
0.008757422
0.008727811
0.00870671
0.008696114
0.008697235
0.008710181
0.008733898
0.008766466
0.00880555
0.008848883
0.008894639
0.008941683
0.008989715
0.009039374
0.009092332
0.00915135
0.009220562
0.00930577
0.009398163
0.009336773
0.009247189
0.009163627
0.00909468
0.009034712
0.008979655
0.008926757
0.008874361
0.008821947
0.008770031
0.008720236
0.008674875
0.008636714
0.00860899
0.008594576
0.008595317
0.008611485
0.008641374
0.008682183
0.00873092
0.008784187
0.008839691
0.008895775
0.008951803
0.00900826
0.009066785
0.009130144
0.009202485
0.00928963
0.009382669
0.009323928
0.009233745
0.009148414
0.009076532
0.009012364
0.008951759
0.008891885
0.008831077
0.008768996
0.008706423
0.008646074
0.008590308
0.008542564
0.008507288
0.008488571
0.008489078
0.00850911
0.00854612
0.008596106
0.008654667
0.008718971
0.008785232
0.008851082
0.008915561
0.008979031
0.009043151
0.009110758
0.009186084
0.00927504
0.009368699
0.009312571
0.009221831
0.009134868
0.009060244
0.008992091
0.00892612
0.008859372
0.008790124
0.008718082
0.008645211
0.008573574
0.00850532
0.008445773
0.008402904
0.008382148
0.00838242
0.008404023
0.00844814
0.008509664
0.008580508
0.008655675
0.008732782
0.008808696
0.008881715
0.008952133
0.00902169
0.009093355
0.009171491
0.009262142
0.009356414
0.009302852
0.00921168
0.009123277
0.009046208
0.008974458
0.008903577
0.008830443
0.008753241
0.008671893
0.008588927
0.00850476
0.008423151
0.00835995
0.008314591
0.008290186
0.008290178
0.00831498
0.008361296
0.008425943
0.008510087
0.008597368
0.008685088
0.00877043
0.008851569
0.008928477
0.009003035
0.009078384
0.009159056
0.009251243
0.009346111
0.009295362
0.009203657
0.009114043
0.009034954
0.008960219
0.008885222
0.00880667
0.008722724
0.008633167
0.008540712
0.008444962
0.008359675
0.008290117
0.008238001
0.008209579
0.008209273
0.008237633
0.008290406
0.008361381
0.008448746
0.008547624
0.008644766
0.008738741
0.0088268
0.008909244
0.008988017
0.009066454
0.009149294
0.009242787
0.009338213
0.009289928
0.009198
0.00910755
0.009027024
0.008950145
0.008872171
0.008789666
0.008700651
0.008604963
0.008505054
0.008401823
0.008314214
0.008237999
0.008180301
0.008148555
0.008147972
0.008179249
0.00823738
0.008314927
0.008404643
0.008510791
0.008615234
0.008715853
0.008809119
0.008895633
0.00897748
0.009058176
0.00914255
0.009236981
0.00933284
0.009287113
0.00919502
0.009104131
0.009022858
0.008944862
0.00886533
0.008780746
0.008688917
0.008590003
0.008485899
0.008380817
0.008289774
0.008209749
0.008148868
0.008115157
0.00811438
0.00814737
0.008208574
0.008289897
0.00838302
0.00849097
0.008599456
0.00870375
0.008799853
0.008888519
0.008971981
0.009053851
0.009139027
0.009233959
0.00933007
0.009286984
0.0091949
0.009104018
0.009022749
0.008944758
0.008865231
0.008780652
0.008688831
0.008589924
0.008485825
0.008380737
0.008289694
0.008209666
0.00814878
0.008115063
0.008114284
0.008147276
0.008208485
0.008289815
0.008382944
0.008490908
0.008599394
0.008703687
0.008799797
0.008888473
0.008971948
0.009053832
0.009139022
0.009233971
0.009330102
0.009289526
0.009197638
0.00910721
0.009026699
0.008949832
0.008871871
0.008789382
0.00870039
0.008604721
0.008504829
0.008401581
0.008313972
0.008237753
0.008180042
0.008148282
0.008147692
0.008178973
0.008237117
0.00831468
0.008404414
0.008510596
0.008615041
0.008715662
0.008808955
0.008895508
0.008977398
0.009058141
0.00914256
0.009237041
0.009332967
0.00929461
0.009203047
0.009113479
0.009034414
0.008959697
0.008884718
0.00880619
0.008722276
0.008632753
0.008540324
0.00844458
0.008359269
0.008289708
0.008237582
0.008209143
0.008208828
0.008237192
0.008289978
0.008360973
0.008448389
0.008547281
0.008644422
0.008738413
0.008826531
0.008909067
0.008987923
0.00906647
0.009149389
0.009242959
0.009338498
0.009302066
0.009210889
0.009122505
0.009045458
0.008973729
0.008902869
0.008829762
0.008752595
0.008671289
0.008588354
0.008504203
0.008422628
0.008359378
0.008314011
0.008289595
0.008289578
0.008314379
0.008360706
0.008425425
0.008509575
0.008596849
0.008684567
0.008769936
0.008851159
0.008928182
0.009002845
0.009078324
0.009159091
0.009251366
0.009346352
0.009311555
0.009220825
0.009133885
0.009059287
0.008991158
0.008925209
0.008858485
0.008789271
0.008717273
0.008644443
0.008572848
0.008504638
0.008445098
0.008402159
0.008381394
0.008381657
0.008403258
0.008447436
0.00850897
0.008579799
0.00865495
0.00873206
0.008808024
0.008881135
0.008951664
0.009021329
0.009093098
0.009171325
0.009262059
0.009356416
0.009322689
0.009232525
0.009147223
0.009075372
0.009011232
0.00895065
0.008890796
0.008830013
0.008767967
0.008705437
0.008645132
0.008589408
0.008541697
0.00850643
0.008487706
0.008488202
0.008508223
0.008545218
0.008595179
0.008653727
0.008718012
0.008784312
0.008850242
0.008914834
0.008978428
0.009042666
0.009110381
0.0091858
0.009274835
0.009368556
0.009335323
0.009245762
0.009162234
0.009093325
0.009033389
0.008978358
0.008925478
0.008873095
0.008820699
0.008768811
0.008719046
0.008673719
0.008635585
0.008607875
0.008593458
0.008594186
0.008610332
0.008640191
0.008680974
0.008729698
0.008783003
0.008838588
0.00889479
0.008950958
0.00900756
0.009066221
0.009129699
0.00920214
0.00928936
0.009382452
0.009349365
0.009260447
0.009178835
0.009113032
0.00905742
0.009007945
0.008961859
0.008917463
0.008874063
0.008831873
0.008791883
0.008756001
0.008726399
0.0087053
0.008694694
0.008695797
0.008708721
0.008732418
0.008764984
0.008804097
0.008847509
0.008893385
0.00894058
0.008988778
0.009038603
0.009091718
0.009150872
0.009220192
0.009305471
0.009397914
0.009364877
0.009276718
0.009197265
0.009134794
0.00908362
0.009039615
0.008999958
0.008962854
0.008927438
0.008893666
0.008862195
0.008834268
0.008811587
0.00879574
0.008788103
0.008789471
0.008799893
0.00881866
0.008844458
0.008875656
0.008910641
0.008948121
0.008987352
0.009028293
0.009071732
0.009119416
0.009174161
0.009240164
0.009323289
0.009414973
0.009382143
0.009295058
0.009218246
0.009159515
0.009112972
0.009074316
0.009040598
0.009009923
0.00898131
0.008954542
0.008930017
0.008908591
0.008891405
0.00887967
0.008874311
0.008875863
0.008884347
0.008899275
0.008919745
0.008944622
0.008972775
0.009003314
0.009035786
0.009070343
0.009107895
0.009150287
0.009200448
0.009262739
0.009343229
0.009433841
0.009401745
0.009316474
0.009243242
0.009188963
0.009147363
0.009113902
0.009085533
0.009060334
0.009037304
0.009016142
0.00899707
0.008980673
0.008967734
0.008959097
0.008955461
0.008957164
0.008964214
0.008976273
0.008992717
0.009012753
0.009035592
0.009060625
0.009087587
0.009116726
0.009148987
0.00918624
0.00923151
0.009289377
0.009366283
0.009455068
0.009424668
0.009342791
0.009274829
0.009226087
0.009189797
0.009161277
0.009137543
0.009116805
0.009098147
0.009081266
0.009066284
0.00905361
0.009043798
0.009037444
0.009035063
0.009036904
0.009042952
0.009052972
0.00906652
0.009083033
0.009101951
0.00912284
0.009145539
0.0091703
0.009197988
0.009230349
0.009270343
0.009322686
0.009394292
0.009479637
0.009452662
0.009377341
0.009317383
0.009275531
0.009244775
0.009220711
0.009200741
0.009183384
0.009167904
0.00915406
0.009141942
0.009131854
0.009124208
0.009119441
0.009117953
0.009119931
0.009125348
0.009134034
0.009145663
0.009159818
0.009176075
0.009194107
0.009213779
0.009235281
0.009259291
0.009287242
0.00932171
0.009367131
0.009430653
0.009509333
0.009488629
0.009426192
0.00937789
0.009344035
0.009318557
0.009298106
0.009280834
0.009265714
0.009252249
0.009240299
0.009229959
0.009221483
0.009215199
0.00921145
0.009210561
0.009212682
0.009217785
0.009225737
0.009236285
0.009249096
0.009263828
0.009280199
0.009298064
0.009317505
0.009338949
0.00936336
0.009392549
0.009429886
0.009481568
0.009547134
0.009529004
0.009489064
0.009453606
0.0094263
0.009404244
0.009385662
0.00936954
0.009355273
0.009342562
0.009331342
0.009321724
0.009313935
0.009308267
0.00930501
0.009304432
0.00930667
0.009311719
0.009319466
0.009329688
0.009342096
0.009356382
0.009372284
0.009389639
0.009408442
0.009428909
0.009451566
0.009477355
0.009508027
0.009546557
0.009589143
0.08950562
0.0896456
0.08967793
0.08963082
0.08954194
0.08943162
0.0893105
0.08918498
0.08905997
0.08894038
0.08883152
0.08873914
0.08866892
0.08862594
0.08861395
0.08863508
0.08868947
0.08877513
0.08888829
0.08902389
0.08917607
0.08933876
0.08950601
0.08967211
0.08983107
0.08997523
0.0900924
0.09016051
0.0901396
0.08999957
0.0896446
0.08984306
0.08990393
0.08986373
0.08977085
0.08965118
0.08951816
0.08937949
0.08924085
0.08910774
0.08898612
0.08888239
0.08880296
0.08875345
0.08873804
0.08875918
0.08881706
0.08890943
0.08903205
0.08917923
0.08934441
0.08952083
0.0897019
0.08988129
0.09005223
0.09020572
0.09032685
0.09038798
0.09033858
0.09014012
0.08967325
0.08990046
0.08997881
0.0899402
0.08983743
0.08970046
0.08954547
0.08938191
0.08921677
0.08905679
0.08890932
0.08878228
0.08868357
0.0886202
0.08859739
0.08861822
0.08868285
0.08878846
0.08892979
0.08909977
0.08929031
0.08949312
0.08970023
0.08990404
0.09009648
0.09026686
0.09039763
0.09045726
0.09039085
0.09016406
0.08962026
0.08985458
0.08993475
0.08988858
0.08976904
0.08960723
0.08942084
0.08922095
0.08901622
0.08881535
0.08862797
0.08846451
0.08833546
0.08825011
0.08821551
0.08823576
0.08831092
0.08843725
0.08860773
0.08881299
0.08904237
0.08928505
0.08953079
0.08977003
0.08999307
0.0901877
0.09033497
0.09040235
0.09033466
0.09010105
0.08952365
0.08975411
0.08982471
0.089762
0.08961806
0.08942331
0.08919573
0.08894751
0.08868919
0.08843207
0.08818904
0.08797433
0.08780226
0.08768557
0.08763416
0.08765358
0.0877438
0.08789963
0.08811143
0.08836635
0.08864988
0.08894745
0.08924552
0.089532
0.08979536
0.09002237
0.09019389
0.09027802
0.09022028
0.08999073
0.08940398
0.08962518
0.08967881
0.08959164
0.08941503
0.0891782
0.0888986
0.08858898
0.08826167
0.08793111
0.08761455
0.08733143
0.08710147
0.08694246
0.08686847
0.08688688
0.08699758
0.08719336
0.08746083
0.08778217
0.08813743
0.08850683
0.08887252
0.08921934
0.08953399
0.08980272
0.09000689
0.09011568
0.09007517
0.089855
0.08927215
0.08948147
0.08951345
0.08939537
0.08917802
0.08888948
0.08854631
0.08816133
0.08774844
0.08732555
0.08691537
0.08654416
0.08623892
0.086025
0.08592173
0.08593905
0.08607675
0.0863248
0.08666464
0.08707163
0.08751842
0.08797838
0.08842835
0.08884968
0.08922749
0.08954783
0.08979282
0.08993272
0.08991406
0.08970587
0.08913475
0.08933093
0.08933834
0.08918444
0.08891938
0.08857002
0.08815187
0.08767747
0.08716197
0.08662682
0.08610107
0.08561926
0.08521912
0.08493578
0.08479544
0.08481179
0.08498439
0.0852992
0.08573064
0.08624479
0.08680469
0.08737507
0.08792653
0.08843679
0.08888951
0.08927081
0.08956373
0.08973965
0.08974576
0.08955083
0.08899686
0.08917938
0.08916061
0.08896772
0.08864981
0.08823228
0.0877293
0.08715277
0.08651856
0.08585138
0.08518644
0.08456971
0.08405271
0.08368214
0.08349404
0.0835094
0.08372744
0.08412719
0.08467293
0.08531783
0.08601348
0.08671397
0.08738321
0.08799547
0.08853326
0.08898307
0.08932916
0.08954437
0.08957689
0.08939574
0.08886343
0.08903241
0.08898711
0.08875397
0.08838067
0.0878907
0.08729646
0.0866086
0.08584286
0.08502629
0.08419926
0.08342135
0.08275727
0.0822673
0.0820045
0.08201706
0.0823051
0.08282185
0.08351377
0.08431949
0.0851731
0.08602081
0.08682072
0.08754439
0.08817389
0.08869664
0.08909858
0.0893544
0.08941372
0.08924627
0.08873983
0.08889595
0.08882517
0.08855281
0.08812481
0.08756245
0.08687585
0.08607371
0.08517054
0.08419165
0.08318637
0.08222171
0.08135111
0.08064748
0.08019642
0.0802034
0.08067191
0.08140174
0.08229987
0.08329301
0.08432514
0.08533219
0.0862688
0.0871069
0.08782931
0.08842507
0.08888224
0.08917771
0.08926281
0.08910831
0.08863176
0.08877631
0.08868256
0.08837453
0.08789629
0.08726676
0.08649354
0.08558273
0.08454593
0.08340569
0.08221383
0.0809959
0.07966188
0.07866801
0.07813092
0.07813287
0.07867798
0.07968968
0.08105693
0.08230614
0.08352706
0.0846931
0.08576299
0.08670988
0.08751948
0.08818306
0.08869105
0.08902263
0.08913095
0.08898791
0.0885442
0.08867959
0.088567
0.08822938
0.08770919
0.08702317
0.08617648
0.08517225
0.08401911
0.08273246
0.08133725
0.07965781
0.07810488
0.07694472
0.07632468
0.07632222
0.07694251
0.07811358
0.07969182
0.08141367
0.08284242
0.08415561
0.08534063
0.08638097
0.08726458
0.08798527
0.08853576
0.08889725
0.08902463
0.08889077
0.08848281
0.08861143
0.08848534
0.08812651
0.0875761
0.08684923
0.08594915
0.08487668
0.08363676
0.08223308
0.08063139
0.07866269
0.07694476
0.07567171
0.07499181
0.07498627
0.07566068
0.07693981
0.07867901
0.08068562
0.08233356
0.08376615
0.08503674
0.08614528
0.08708271
0.08784477
0.08842586
0.08880887
0.08894985
0.08882243
0.08845065
0.08857585
0.08844274
0.08807281
0.08750656
0.08675821
0.08583003
0.08472187
0.08343432
0.08195915
0.08017508
0.07812432
0.07632641
0.07499501
0.07428376
0.0742767
0.07497943
0.07631435
0.07813179
0.08021881
0.08205485
0.08356063
0.08487746
0.08602192
0.08698775
0.08777161
0.08836883
0.08876314
0.08891122
0.0887871
0.08844971
0.08857489
0.08844177
0.08807185
0.08750561
0.08675727
0.08582911
0.08472096
0.08343344
0.08195831
0.08017434
0.07812352
0.07632551
0.07499399
0.07428262
0.07427552
0.0749783
0.07631332
0.07813088
0.08021798
0.08205392
0.08355972
0.08487663
0.08602116
0.08698708
0.08777102
0.08836831
0.08876267
0.08891076
0.08878659
0.08848005
0.08860858
0.08848246
0.08812364
0.08757325
0.0868464
0.08594637
0.08487394
0.08363409
0.08223051
0.08062908
0.07866027
0.07694212
0.07566875
0.07498856
0.07498291
0.07565744
0.07693684
0.07867629
0.08068308
0.08233076
0.08376343
0.08503422
0.08614298
0.08708064
0.08784293
0.08842422
0.08880737
0.08894839
0.08882083
0.08853978
0.08867489
0.08856222
0.08822459
0.08770441
0.08701843
0.08617179
0.08516762
0.08401457
0.08272803
0.08133293
0.07965366
0.07810059
0.07694009
0.07631971
0.0763171
0.07693752
0.07810884
0.07968723
0.08140884
0.08283761
0.08415101
0.08533636
0.08637704
0.08726097
0.08798203
0.08853279
0.08889451
0.08902195
0.08888784
0.08862516
0.08876968
0.0886759
0.08836783
0.08788958
0.08726006
0.08648687
0.0855761
0.08453937
0.08339924
0.08220749
0.08098959
0.07965581
0.07866181
0.07812444
0.07812622
0.07867136
0.07968305
0.0810499
0.08229907
0.08352016
0.08468654
0.0857569
0.08670426
0.08751435
0.08817845
0.08868687
0.0890188
0.08912726
0.088984
0.08873147
0.08888753
0.08881667
0.08854424
0.08811618
0.08755376
0.08686712
0.08606497
0.08516182
0.08418296
0.08317771
0.08221302
0.08134245
0.08063947
0.08018825
0.08019505
0.08066342
0.08139233
0.08229032
0.08328357
0.08431601
0.08532355
0.08626077
0.08709954
0.08782266
0.08841915
0.08887696
0.08917293
0.08925831
0.08910378
0.08885343
0.0890223
0.08897687
0.08874359
0.08837014
0.08788002
0.08728564
0.08659766
0.08583183
0.0850152
0.0841881
0.08341006
0.08274584
0.08225576
0.08199274
0.08200509
0.08229298
0.08280958
0.08350155
0.08430755
0.08516162
0.08600994
0.08681063
0.08753518
0.08816561
0.08868928
0.08909205
0.08934853
0.08940827
0.08924094
0.08898536
0.08916772
0.08914873
0.08895561
0.08863745
0.08821965
0.0877164
0.08713961
0.08650515
0.08583775
0.08517261
0.08455566
0.08403841
0.08366757
0.0834792
0.08349434
0.08371226
0.08411202
0.08465795
0.08530324
0.08599949
0.08670079
0.08737101
0.08798437
0.08852331
0.08897425
0.08932135
0.08953737
0.08957044
0.08938952
0.08912193
0.08931788
0.08932499
0.08917075
0.08890532
0.08855554
0.08813696
0.08766213
0.0871462
0.08661064
0.08608451
0.08560232
0.08520182
0.08491813
0.08477748
0.08479362
0.08496612
0.08528103
0.08571276
0.08622746
0.08678816
0.08735957
0.08791224
0.08842384
0.08887795
0.08926058
0.08955469
0.08973159
0.08973837
0.08954374
0.08925823
0.08946726
0.08949883
0.08938028
0.08916241
0.08887331
0.08852954
0.08814394
0.08773043
0.08730694
0.08689617
0.0865244
0.08621867
0.0860043
0.08590067
0.08591776
0.08605541
0.08630363
0.08664391
0.08705161
0.0874994
0.08796062
0.08841204
0.08883496
0.08921439
0.08953628
0.08978266
0.08992368
0.08990579
0.08969795
0.08938922
0.08961005
0.08966315
0.08957538
0.08939809
0.08916053
0.08888016
0.08856974
0.08824162
0.08791025
0.08759292
0.08730908
0.08707846
0.08691891
0.08684449
0.08686266
0.08697335
0.08716938
0.08743741
0.08775964
0.08811609
0.08848696
0.08885435
0.08920298
0.08951948
0.08978997
0.08999571
0.09010577
0.09006613
0.08984636
0.08950833
0.08973833
0.08980827
0.08974481
0.08960003
0.08940439
0.08917586
0.08892665
0.08866734
0.08840924
0.08816528
0.08794969
0.08777684
0.08765949
0.0876076
0.08762677
0.08771699
0.08787314
0.08808562
0.08834156
0.08862647
0.0889257
0.08922567
0.08951417
0.08977958
0.09000856
0.09018182
0.09026737
0.09021059
0.08998147
0.08960463
0.08983842
0.08991781
0.08987073
0.08975019
0.08958731
0.08939981
0.08919877
0.08899289
0.08879089
0.08860242
0.08843796
0.08830801
0.08822192
0.08818679
0.08820676
0.08828196
0.08840867
0.08857991
0.0887863
0.08901719
0.08926169
0.08950949
0.08975093
0.08997621
0.09017297
0.09032215
0.09039107
0.09032441
0.09009128
0.08965756
0.08988417
0.08996164
0.08992198
0.08981806
0.08967986
0.0895236
0.08935874
0.0891923
0.08903106
0.08888239
0.08875424
0.08865455
0.08859038
0.08856701
0.08858755
0.08865221
0.08875824
0.08890039
0.08907158
0.08926372
0.08946846
0.08967776
0.08988391
0.09007873
0.09025139
0.09038418
0.09044545
0.09038015
0.09015386
0.08962903
0.08982685
0.08988676
0.0898454
0.08975124
0.0896302
0.08949577
0.08935567
0.08921563
0.08908116
0.08895825
0.08885335
0.08877287
0.08872252
0.08870651
0.08872735
0.08878527
0.08887807
0.08900154
0.08914997
0.08931681
0.08949523
0.08967857
0.08986039
0.0900338
0.09018966
0.09031289
0.09037573
0.09032749
0.09012956
0.08949024
0.08962958
0.0896609
0.08961256
0.08952232
0.08941054
0.08928792
0.0891609
0.08903441
0.08891339
0.0888032
0.08870959
0.0886383
0.08859445
0.08858183
0.08860265
0.08865707
0.08874316
0.08885717
0.08899405
0.08914791
0.08931262
0.08948217
0.08965074
0.08981221
0.08995877
0.09007809
0.09014793
0.09012822
0.08998876
0.1919505
0.1920448
0.1920395
0.1919224
0.1917227
0.1914665
0.1911724
0.190855
0.190528
0.1902063
0.1899069
0.1896479
0.1894473
0.1893212
0.1892815
0.1893351
0.1894823
0.1897173
0.1900284
0.1904001
0.190814
0.1912512
0.1916932
0.1921228
0.1925234
0.1928769
0.1931607
0.1933442
0.193394
0.1933195
0.1920371
0.1921934
0.1922298
0.1921239
0.191913
0.1916313
0.1913029
0.1909456
0.1905756
0.1902103
0.189869
0.1895723
0.1893408
0.1891925
0.1891412
0.1891945
0.1893529
0.1896096
0.1899515
0.1903607
0.1908165
0.1912974
0.1917824
0.1922521
0.1926872
0.1930662
0.1933608
0.1935325
0.1935393
0.1934009
0.1920182
0.1922161
0.1922812
0.1921735
0.1919329
0.1916002
0.1912054
0.1907711
0.1903178
0.189867
0.1894429
0.1890714
0.1887778
0.188585
0.1885099
0.1885622
0.1887423
0.1890417
0.1894438
0.1899264
0.1904636
0.1910288
0.1915964
0.1921422
0.1926428
0.193072
0.1933955
0.1935679
0.1935446
0.1933631
0.1918827
0.1920917
0.192155
0.19202
0.1917249
0.1913134
0.1908196
0.1902708
0.1896925
0.1891127
0.1885626
0.1880762
0.1876872
0.1874253
0.1873133
0.1873638
0.1875771
0.1879417
0.1884359
0.1890303
0.1896908
0.1903828
0.1910731
0.1917316
0.1923295
0.192836
0.1932128
0.1934114
0.1933888
0.1931953
0.1916608
0.1918585
0.1918922
0.1917027
0.1913261
0.1908061
0.190179
0.1894759
0.1887283
0.1879719
0.1872482
0.1866025
0.1860803
0.1857219
0.1855582
0.185606
0.1858656
0.1863214
0.1869439
0.1876931
0.1885234
0.1893885
0.1902454
0.1910556
0.1917847
0.192398
0.1928549
0.193107
0.1931133
0.1929305
0.1913791
0.1915513
0.1915341
0.1912662
0.1907813
0.1901223
0.189326
0.1884267
0.1874618
0.1864771
0.1855268
0.1846718
0.1839736
0.1834874
0.1832552
0.1832996
0.1836209
0.1841977
0.1849897
0.1859426
0.1869947
0.1880842
0.189155
0.1901588
0.1910551
0.1918058
0.1923699
0.1926996
0.1927563
0.1925988
0.1910569
0.1911947
0.1911114
0.1907451
0.1901275
0.1892997
0.1882982
0.1871596
0.1859277
0.1846592
0.1834247
0.182305
0.1813831
0.1807339
0.1804143
0.1804548
0.1808553
0.181587
0.1825951
0.183806
0.1851368
0.1865058
0.1878404
0.1890812
0.1901811
0.1910994
0.1917954
0.1922231
0.1923456
0.1922227
0.1907091
0.190807
0.1906472
0.1901672
0.1893964
0.1883733
0.1871332
0.1857141
0.1841659
0.1825576
0.1809791
0.1795359
0.1783386
0.1774877
0.1770599
0.1770958
0.1775955
0.1785197
0.1797946
0.1813214
0.1829904
0.1846948
0.1863428
0.1878624
0.1891999
0.190313
0.191162
0.1917033
0.1919026
0.1918197
0.1903496
0.1904047
0.1901622
0.1895584
0.1886197
0.1873811
0.1858754
0.1841409
0.182233
0.1802335
0.1782534
0.176428
0.1749012
0.1738059
0.1732456
0.1732762
0.1738982
0.1750569
0.1766525
0.1785538
0.1806181
0.1827097
0.1847151
0.1865492
0.1881522
0.189481
0.1904982
0.1911637
0.1914462
0.1914066
0.1899937
0.1900054
0.1896782
0.1889467
0.1878335
0.1863688
0.1845816
0.1825094
0.1802115
0.1777815
0.1753521
0.17309
0.171175
0.1697822
0.1690544
0.1690781
0.1698549
0.1713008
0.1732763
0.1756084
0.1781166
0.1806352
0.183029
0.1852007
0.1870857
0.1886415
0.1898341
0.1906282
0.190996
0.1910003
0.1896579
0.1896279
0.189219
0.1883633
0.1870788
0.1853904
0.1833222
0.1809091
0.1782123
0.1753342
0.172427
0.1696802
0.1673009
0.1655252
0.1645693
0.1645842
0.1655737
0.1673924
0.1698249
0.1726371
0.1756207
0.1785848
0.1813768
0.1838899
0.1860572
0.1878381
0.1892032
0.1901226
0.1905731
0.1906196
0.18936
0.1892927
0.18881
0.1878414
0.1864004
0.1845061
0.1821772
0.1794447
0.1763693
0.1730572
0.1696676
0.1663787
0.1633954
0.1610973
0.1598861
0.159891
0.1611177
0.1634468
0.1664804
0.1698321
0.1732981
0.1766953
0.1798661
0.1826996
0.1851291
0.1871175
0.1886407
0.189674
0.1901992
0.1902836
0.1891172
0.1890192
0.1884758
0.1874139
0.1858428
0.1837764
0.1812283
0.178225
0.1748247
0.1711294
0.1672795
0.1633882
0.1598348
0.1572154
0.1558254
0.1558214
0.1572109
0.1598491
0.1634458
0.1674022
0.1713304
0.1751123
0.1786084
0.1817138
0.1843641
0.1865263
0.188181
0.1893089
0.1898955
0.1900109
0.188945
0.1888251
0.1882383
0.1871097
0.1854452
0.183255
0.1805485
0.1773485
0.1737089
0.169722
0.1654948
0.1610867
0.1572156
0.154361
0.1528433
0.1528328
0.1543379
0.1572024
0.1611112
0.1655842
0.169893
0.1739689
0.1777049
0.181008
0.1838181
0.1861055
0.1878547
0.1890502
0.1896808
0.1898181
0.1888545
0.1887233
0.1881139
0.1869504
0.1852371
0.1829821
0.1801925
0.176889
0.1731217
0.1689741
0.1645266
0.1598726
0.1558289
0.15285
0.1512651
0.1512509
0.1528169
0.1558008
0.1598797
0.1645987
0.1691292
0.1733675
0.1772314
0.1806387
0.1835327
0.1858857
0.1876845
0.1889154
0.1895689
0.1897176
0.1888518
0.1887205
0.188111
0.1869476
0.1852343
0.1829793
0.1801897
0.1768862
0.173119
0.1689714
0.164524
0.15987
0.1558263
0.1528472
0.1512622
0.151248
0.152814
0.1557979
0.1598769
0.1645958
0.1691263
0.1733646
0.1772287
0.1806361
0.1835303
0.1858835
0.1876825
0.1889135
0.1895671
0.1897158
0.1889368
0.1888168
0.1882299
0.1871013
0.1854367
0.1832465
0.18054
0.1773401
0.1737006
0.1697138
0.1654868
0.1610788
0.1572076
0.1543527
0.1528348
0.152824
0.1543292
0.1571937
0.1611027
0.1655755
0.1698842
0.1739603
0.1776967
0.1810003
0.1838109
0.1860988
0.1878486
0.1890445
0.1896752
0.1898125
0.1891037
0.1890054
0.1884618
0.1873998
0.1858286
0.1837622
0.181214
0.1782108
0.1748105
0.1711153
0.1672656
0.1633746
0.1598211
0.1572014
0.155811
0.1558068
0.1571962
0.1598344
0.1634311
0.1673871
0.1713154
0.1750976
0.1785944
0.1817007
0.1843519
0.186515
0.1881706
0.1892991
0.1898861
0.1900013
0.189341
0.1892735
0.1887905
0.1878218
0.1863806
0.1844861
0.182157
0.1794244
0.176349
0.1730368
0.1696473
0.1663584
0.1633753
0.161077
0.1598654
0.1598699
0.1610964
0.1634254
0.1664584
0.16981
0.1732763
0.1766742
0.179846
0.1826808
0.1851117
0.1871015
0.1886259
0.1896602
0.1901859
0.1902703
0.1896338
0.1896037
0.1891944
0.1883383
0.1870533
0.1853645
0.1832959
0.1808824
0.1781853
0.1753069
0.1723996
0.1696526
0.167273
0.1654973
0.164541
0.1645555
0.1655446
0.1673627
0.169795
0.1726074
0.1755916
0.1785569
0.1813503
0.1838652
0.1860343
0.1878171
0.189184
0.1901047
0.1905561
0.1906029
0.1899651
0.1899764
0.1896487
0.1889165
0.1878025
0.186337
0.184549
0.1824761
0.1801775
0.1777469
0.1753169
0.1730542
0.1711386
0.1697454
0.1690169
0.1690401
0.1698165
0.1712621
0.1732377
0.1755705
0.1780798
0.1805999
0.1829957
0.1851697
0.1870572
0.1886155
0.1898103
0.1906062
0.1909753
0.1909802
0.1903171
0.1903717
0.1901283
0.1895234
0.1885836
0.1873437
0.1858367
0.1841009
0.1821919
0.1801912
0.1782101
0.1763836
0.1748559
0.1737597
0.1731986
0.1732286
0.1738502
0.1750089
0.1766049
0.1785072
0.1805731
0.1826668
0.1846748
0.1865118
0.1881178
0.1894497
0.1904696
0.1911375
0.1914216
0.1913828
0.1906732
0.1907705
0.1906095
0.190128
0.1893555
0.1883306
0.1870886
0.1856675
0.1841175
0.1825075
0.1809274
0.1794827
0.178284
0.1774319
0.1770031
0.1770383
0.1775377
0.1784621
0.1797377
0.181266
0.182937
0.1846441
0.1862953
0.1878186
0.1891598
0.1902766
0.1911289
0.191673
0.1918742
0.1917924
0.1910186
0.1911555
0.1910707
0.1907024
0.1900825
0.1892522
0.1882481
0.1871069
0.1858725
0.1846016
0.1833648
0.1822431
0.1813194
0.1806686
0.1803478
0.1803875
0.1807878
0.1815198
0.182529
0.1837418
0.1850752
0.1864475
0.187786
0.1890311
0.1901353
0.191058
0.1917578
0.1921888
0.1923136
0.1921919
0.1913393
0.1915104
0.1914912
0.1912207
0.1907328
0.1900705
0.1892709
0.1883683
0.1874002
0.1864124
0.1854592
0.1846016
0.1839012
0.1834131
0.1831794
0.1832229
0.183544
0.1841214
0.1849148
0.18587
0.1869252
0.1880186
0.1890939
0.1901027
0.1910041
0.1917597
0.1923282
0.1926616
0.1927209
0.1925649
0.1916202
0.1918166
0.1918478
0.1916552
0.1912749
0.1907509
0.1901198
0.1894126
0.188661
0.1879009
0.1871737
0.186525
0.186
0.1856394
0.185474
0.1855208
0.1857802
0.1862367
0.1868609
0.1876128
0.1884467
0.1893163
0.1901783
0.1909942
0.191729
0.1923477
0.1928096
0.1930657
0.193075
0.1928937
0.1918422
0.1920495
0.19211
0.1919712
0.1916717
0.1912556
0.1907571
0.1902035
0.1896206
0.1890364
0.1884823
0.1879924
0.1876002
0.1873358
0.1872219
0.1872713
0.1874844
0.1878499
0.188346
0.1889434
0.189608
0.1903049
0.191001
0.1916656
0.1922697
0.1927822
0.1931643
0.1933674
0.193348
0.1931561
0.1919782
0.1921742
0.192236
0.1921241
0.1918786
0.1915407
0.1911405
0.1907008
0.1902423
0.1897867
0.1893581
0.1889826
0.1886856
0.1884899
0.1884128
0.1884639
0.1886439
0.1889442
0.1893485
0.1898343
0.190376
0.1909465
0.1915201
0.1920725
0.1925797
0.1930153
0.1933445
0.1935217
0.1935017
0.193322
0.1919977
0.192152
0.1921849
0.1920744
0.1918582
0.1915708
0.1912365
0.1908733
0.1904978
0.1901273
0.1897811
0.1894802
0.189245
0.1890937
0.1890402
0.1890923
0.1892505
0.1895083
0.1898524
0.1902651
0.1907255
0.1912119
0.1917034
0.1921799
0.1926219
0.1930075
0.1933081
0.1934847
0.193495