/*--------------------------------*- C++ -*----------------------------------*\
| =========                 |                                                 |
| \\      /  F ield         | OpenFOAM: The Open Source CFD Toolbox           |
|  \\    /   O peration     | Version:  2506                                  |
|   \\  /    A nd           | Website:  www.openfoam.com                      |
|    \\/     M anipulation  |                                                 |
\*---------------------------------------------------------------------------*/
FoamFile
{
    version     2.0;
    format      ascii;
    arch        "LSB;label=32;scalar=64";
    class       volScalarField;
    location    "3000/air";
    object      epsilon;
}
// * * * * * * * * * * * * * * * * * * * * * * * * * * * * * * * * * * * * * //

dimensions      [0 2 -3 0 0 0 0];

internalField   nonuniform List<scalar> 
33752
(
0.03737698
0.03691009
0.03649979
0.03618688
0.0359364
0.03572716
0.03554707
0.03538886
0.03524885
0.035126
0.03502126
0.03493688
0.0348758
0.03484103
0.03483535
0.03486023
0.03491566
0.03500055
0.03511272
0.03524926
0.03540711
0.03558369
0.0357775
0.03598883
0.03622051
0.03647894
0.03677557
0.0371316
0.03758332
0.03808782
0.03690474
0.03618203
0.03563044
0.03524831
0.03496362
0.03473722
0.03454765
0.03438302
0.03423748
0.03410913
0.03399873
0.0339087
0.03384231
0.03380304
0.0337942
0.03381731
0.03387213
0.03395742
0.0340707
0.03420874
0.03436816
0.03454626
0.03474182
0.03495611
0.0351943
0.03546775
0.03579774
0.03622421
0.03682163
0.03759011
0.03648806
0.03562367
0.03494628
0.03447967
0.03414055
0.0338779
0.033662
0.033476
0.03331145
0.03316535
0.0330383
0.03293314
0.03285386
0.03280479
0.03278991
0.03281104
0.03286797
0.03295912
0.0330814
0.03323079
0.03340325
0.0335957
0.03380716
0.0340401
0.03430246
0.03461078
0.03499492
0.03550695
0.03623289
0.03714671
0.03616648
0.03523291
0.03447104
0.0339325
0.0335364
0.03322852
0.03297499
0.03275565
0.0325601
0.03238463
0.03223005
0.03210012
0.03200012
0.03193576
0.03191208
0.0319314
0.03199368
0.03209675
0.03223648
0.03240757
0.03260476
0.03282407
0.03306433
0.03332882
0.03362749
0.03398026
0.03442119
0.03500558
0.03581719
0.03680164
0.03590504
0.03493774
0.03412167
0.03352616
0.03307577
0.03271789
0.03241799
0.03215455
0.03191628
0.0316994
0.03150557
0.03134015
0.03121044
0.0311244
0.03108863
0.03110623
0.03117737
0.03129905
0.03146553
0.03166952
0.03190372
0.03216258
0.03244406
0.03275145
0.03309561
0.03349773
0.03399255
0.03463382
0.03549998
0.0365185
0.03568286
0.03469924
0.03384746
0.03320691
0.03270652
0.0322965
0.0319435
0.03162635
0.03133399
0.03106341
0.03081789
0.03060519
0.03043584
0.03032099
0.03026904
0.03028483
0.03036868
0.03051635
0.03071977
0.03096868
0.03125279
0.031564
0.03189856
0.03225886
0.03265538
0.03310899
0.03365322
0.03433922
0.03524102
0.03627568
0.03548823
0.03449626
0.03361899
0.03294122
0.03239459
0.0319315
0.03152018
0.0311407
0.03078329
0.03044664
0.03013643
0.02986388
0.02964448
0.02949233
0.02941957
0.02943326
0.02953399
0.02971575
0.02996717
0.03027379
0.03062116
0.03099758
0.03139656
0.03181859
0.03227277
0.03277881
0.03336874
0.0340916
0.03501867
0.03606127
0.03531422
0.03431716
0.03341964
0.03270921
0.03211885
0.03160217
0.03112855
0.03067939
0.03024685
0.02983227
0.02944443
0.02910059
0.02881988
0.02862149
0.02852248
0.02853329
0.02865515
0.02887949
0.0291903
0.02956759
0.02999142
0.03044541
0.0309192
0.03141046
0.03192643
0.03248557
0.03311887
0.03387413
0.03482123
0.03586846
0.03515738
0.03415632
0.03324115
0.03250068
0.03186825
0.03129784
0.03075932
0.03023506
0.02971941
0.02921699
0.0287424
0.02831659
0.02796257
0.02770777
0.02757604
0.0275829
0.02773108
0.02800698
0.02838772
0.02884855
0.02935993
0.02990177
0.03045873
0.03102488
0.0316055
0.03221817
0.03289345
0.03367867
0.03464329
0.03569412
0.03501679
0.03401197
0.03308063
0.03231202
0.03163912
0.03101572
0.03041159
0.02980968
0.0292067
0.02861027
0.02804522
0.02753179
0.02709859
0.02678192
0.02661489
0.02661936
0.02679833
0.02713141
0.02758662
0.02812883
0.02873537
0.02937191
0.03001695
0.03066098
0.03130736
0.0319732
0.03268911
0.03350262
0.03448344
0.03553784
0.0348933
0.03388485
0.03293867
0.03214401
0.03143312
0.03075911
0.03009127
0.02941282
0.02872176
0.02803682
0.02737794
0.0267618
0.02623219
0.02585461
0.02567435
0.02567663
0.02586433
0.02625337
0.02680189
0.02744398
0.02813997
0.02886962
0.02960367
0.03032511
0.03103579
0.03175274
0.03250708
0.03334701
0.03434296
0.03540116
0.03478867
0.03377729
0.03281804
0.03200031
0.03125544
0.03053565
0.02980943
0.02906
0.02828817
0.02751914
0.026757
0.02603248
0.02548084
0.0250927
0.02488566
0.02488542
0.02509571
0.02549244
0.02605753
0.02680668
0.02760088
0.02841978
0.02923524
0.03002911
0.0307991
0.03156258
0.03235154
0.03321516
0.03422481
0.03528701
0.03470798
0.03369284
0.03272265
0.03188597
0.03111312
0.03035531
0.02958012
0.02877138
0.02792954
0.02708235
0.02622576
0.02547902
0.02488481
0.02444664
0.02421005
0.02420725
0.024443
0.02488679
0.02549391
0.02626041
0.02714824
0.02804429
0.02893344
0.02978812
0.03060813
0.03141046
0.0322282
0.03311178
0.03413309
0.0351994
0.03465084
0.03363407
0.0326563
0.03180618
0.03101334
0.03022822
0.02941761
0.02856503
0.02767088
0.02676311
0.02584677
0.02509087
0.02444747
0.02396878
0.02370836
0.02370328
0.02395939
0.0244415
0.0250966
0.02587211
0.02681706
0.02777209
0.02871747
0.02961739
0.03047376
0.03130419
0.03214277
0.03304054
0.03407026
0.03513994
0.03462198
0.03360396
0.0326222
0.03176512
0.03096189
0.03016252
0.02933339
0.02845634
0.02753517
0.02659317
0.02566537
0.02488455
0.02421335
0.02371201
0.02343775
0.02343112
0.023699
0.02420267
0.02488495
0.02568476
0.0266404
0.02762784
0.02860421
0.02952866
0.03040411
0.0312492
0.03209858
0.03300373
0.03403794
0.03510964
0.03462241
0.03360444
0.0326227
0.03176561
0.03096238
0.03016299
0.02933382
0.02845675
0.02753553
0.02659348
0.02566562
0.02488477
0.02421356
0.02371223
0.02343799
0.02343137
0.02369923
0.02420288
0.02488513
0.02568492
0.02664059
0.02762801
0.02860436
0.02952882
0.03040428
0.03124941
0.03209884
0.03300407
0.03403843
0.03511036
0.03465197
0.03363546
0.03265777
0.03180766
0.03101479
0.03022959
0.0294189
0.02856621
0.02767192
0.02676401
0.02584749
0.02509149
0.02444805
0.02396936
0.02370896
0.02370389
0.02395997
0.024442
0.02509703
0.02587253
0.02681753
0.02777255
0.02871788
0.02961786
0.03047432
0.03130488
0.03214367
0.03304171
0.03407187
0.03514229
0.03470927
0.03369506
0.03272507
0.0318884
0.03111547
0.03035754
0.0295822
0.02877327
0.02793122
0.02708376
0.02622691
0.02547998
0.02488566
0.02444746
0.02421086
0.02420805
0.02444375
0.02488745
0.0254945
0.0262611
0.02714888
0.02804488
0.02893401
0.02978885
0.03060916
0.03141176
0.03223002
0.03311408
0.03413606
0.03520366
0.03479237
0.0337808
0.03282146
0.03200363
0.03125863
0.03053866
0.02981222
0.02906253
0.0282904
0.02752098
0.02675839
0.02603375
0.02548191
0.02509365
0.02488655
0.02488626
0.02509648
0.02549314
0.02605833
0.02680741
0.02760155
0.02842032
0.02923571
0.03002974
0.03080001
0.03156373
0.03235321
0.03321733
0.03422769
0.03529121
0.03489788
0.03388926
0.03294294
0.03214813
0.03143704
0.03076279
0.03009467
0.02941589
0.02872446
0.02803908
0.0273798
0.02676338
0.02623357
0.02585566
0.02567528
0.02567747
0.02586509
0.02625424
0.02680264
0.02744465
0.02814049
0.02886991
0.02960385
0.03032525
0.03103595
0.03175297
0.03250752
0.03334777
0.03434427
0.03540335
0.0350221
0.03401712
0.03308561
0.0323168
0.03164365
0.03101994
0.03041546
0.02981316
0.02920974
0.02861285
0.02804734
0.02753355
0.02710005
0.02678313
0.02661595
0.0266203
0.02679916
0.02713215
0.02758724
0.02812925
0.02873554
0.02937188
0.03001671
0.03066055
0.0313068
0.03197257
0.03268852
0.0335022
0.0344834
0.03553837
0.03516328
0.03416206
0.03324669
0.03250598
0.03187323
0.03130246
0.03076352
0.0302388
0.02972267
0.02921974
0.02874464
0.02831837
0.02796398
0.02770887
0.02757693
0.02758362
0.02773166
0.02800739
0.02838793
0.02884856
0.02935972
0.02990129
0.03045796
0.03102384
0.03160422
0.03221672
0.03289192
0.03367718
0.03464201
0.03569324
0.03532056
0.03432334
0.03342559
0.03271488
0.03212416
0.03160704
0.03113293
0.03068324
0.03025016
0.02983503
0.02944668
0.02910234
0.02882121
0.02862246
0.02852316
0.02853375
0.02865542
0.02887957
0.02919017
0.0295672
0.02999074
0.03044438
0.03091782
0.03140873
0.03192439
0.03248327
0.0331164
0.03387158
0.03481873
0.03586624
0.03549485
0.0345027
0.03362521
0.03294712
0.03240009
0.03193649
0.03152462
0.03114455
0.03078653
0.03044929
0.03013853
0.02986547
0.02964561
0.02949308
0.02942
0.02943343
0.02953392
0.02971545
0.0299666
0.03027292
0.03061993
0.03099596
0.03139452
0.03181613
0.03226993
0.03277563
0.03336531
0.03408803
0.03501513
0.03605797
0.03568959
0.0347058
0.0338538
0.03321292
0.03271209
0.03230152
0.0319479
0.03163009
0.03133707
0.03106586
0.03081975
0.03060653
0.03043671
0.03032145
0.03026914
0.03028464
0.03036822
0.03051561
0.03071873
0.03096729
0.031251
0.03156178
0.03189587
0.03225569
0.03265175
0.03310494
0.03364884
0.03433464
0.03523644
0.03627133
0.03591173
0.03494429
0.03412801
0.03353217
0.03308131
0.03272286
0.0324223
0.03215816
0.03191918
0.03170162
0.03150717
0.03134119
0.03121098
0.03112453
0.03108839
0.03110567
0.03117651
0.03129789
0.03146404
0.03166766
0.03190144
0.03215982
0.03244079
0.03274764
0.03309125
0.03349287
0.03398726
0.03462827
0.03549439
0.03651313
0.03617303
0.03523935
0.03447729
0.03393844
0.03354187
0.03323341
0.0329792
0.03275913
0.03256285
0.03238667
0.03223144
0.03210093
0.03200041
0.03193561
0.03191155
0.03193054
0.03199251
0.03209527
0.03223465
0.03240537
0.03260211
0.03282092
0.03306063
0.03332451
0.03362256
0.03397473
0.03441515
0.03499919
0.03581071
0.03679535
0.03649441
0.03562995
0.0349524
0.03448549
0.03414594
0.03388272
0.03366616
0.03347943
0.03331414
0.03316733
0.03303961
0.03293385
0.03285405
0.03280453
0.03278926
0.03281005
0.03286667
0.03295751
0.03307945
0.03322845
0.03340045
0.03359238
0.03380323
0.03403551
0.03429718
0.03460482
0.03498836
0.03549997
0.03622575
0.03713971
0.0369109
0.03618815
0.03563644
0.03525405
0.03496897
0.03474204
0.03455185
0.03438652
0.03424026
0.0341112
0.03400014
0.03390951
0.0338426
0.03380289
0.03379367
0.03381645
0.03387096
0.03395595
0.0340689
0.03420654
0.03436549
0.03454305
0.03473797
0.03495156
0.03518899
0.03546169
0.03579101
0.03621697
0.03681415
0.0375827
0.03738304
0.03691611
0.03650573
0.03619261
0.0359418
0.03573208
0.03555141
0.03539254
0.03525184
0.03512831
0.03502292
0.03493796
0.03487637
0.03484117
0.03483514
0.03485971
0.03491485
0.03499945
0.03511129
0.03524745
0.03540483
0.03558085
0.035774
0.03598459
0.03621547
0.0364731
0.03676902
0.03712448
0.03757587
0.03808032
0.01316017
0.0130994
0.01303498
0.01297654
0.01292338
0.01287431
0.01282863
0.01278607
0.01274681
0.01271138
0.01268062
0.01265557
0.01263732
0.01262693
0.01262525
0.01263271
0.01264928
0.01267455
0.01270777
0.01274793
0.01279388
0.01284446
0.01289865
0.01295568
0.01301508
0.01307679
0.01314118
0.01320911
0.01328102
0.01334662
0.01309914
0.01299634
0.01290123
0.01282514
0.01276232
0.01270786
0.01265891
0.01261409
0.012573
0.01253592
0.0125036
0.0124771
0.01245757
0.01244615
0.01244375
0.01245086
0.01246741
0.01249297
0.01252673
0.0125676
0.01261437
0.01266587
0.0127212
0.01277985
0.01284197
0.01290867
0.01298259
0.01306848
0.01317208
0.01328137
0.01303361
0.01290015
0.01277432
0.01267602
0.01259824
0.01253353
0.01247708
0.01242625
0.01237995
0.01233814
0.0123015
0.01227115
0.01224839
0.01223455
0.0122307
0.01223738
0.01225455
0.01228169
0.01231785
0.01236175
0.01241206
0.01246756
0.01252741
0.01259147
0.01266061
0.01273728
0.01282614
0.01293464
0.01306984
0.01321087
0.01297316
0.01282215
0.01267416
0.01255639
0.01246303
0.01238587
0.01231908
0.0122592
0.01220463
0.01215513
0.01211138
0.01207472
0.01204673
0.01202904
0.01202299
0.01202926
0.01204782
0.01207801
0.01211863
0.01216813
0.01222487
0.01228745
0.01235503
0.01242769
0.01250683
0.01259576
0.0127002
0.01282841
0.0129863
0.01314541
0.01291718
0.01275665
0.01259381
0.0124605
0.01235253
0.01226201
0.01218289
0.01211136
0.01204563
0.01198543
0.01193166
0.011886
0.01185054
0.0118274
0.01181832
0.01182417
0.01184497
0.01187985
0.01192723
0.01198509
0.0120513
0.01212409
0.01220243
0.0122864
0.01237764
0.01247976
0.01259876
0.01274261
0.01291559
0.01308442
0.01286461
0.01269888
0.01252595
0.01238028
0.01225898
0.01215477
0.01206181
0.01197637
0.01189671
0.01182279
0.01175591
0.01169836
0.01165296
0.01162255
0.01160943
0.01161484
0.01163882
0.01168021
0.01173687
0.01180605
0.0118849
0.01197105
0.01206302
0.01216066
0.01226552
0.01238118
0.01251342
0.01266964
0.01285278
0.01302684
0.01281488
0.01264612
0.0124659
0.01231002
0.01217645
0.01205843
0.01195047
0.0118491
0.0117529
0.01166225
0.0115791
0.01150659
0.01144859
0.01140886
0.01139057
0.01139546
0.01142364
0.01147354
0.01154218
0.0116258
0.01172056
0.01182317
0.01193148
0.01204487
0.01216456
0.01229389
0.0124383
0.01260468
0.01279511
0.01297215
0.01276784
0.01259707
0.0124111
0.01224636
0.01210126
0.01196939
0.01184553
0.01172653
0.0116114
0.0115012
0.0113987
0.01130825
0.01123487
0.01118369
0.01115896
0.01116318
0.0111966
0.01125706
0.01134045
0.01144168
0.01155552
0.01167754
0.01180466
0.01193556
0.01207103
0.01221411
0.01236997
0.01254517
0.01274132
0.01292029
0.01272375
0.01255143
0.01236055
0.01218778
0.0120317
0.01188602
0.01174568
0.01160779
0.01147188
0.01133977
0.01121544
0.01110435
0.01101302
0.01094834
0.01091601
0.01091943
0.01095904
0.01103192
0.01113252
0.01125415
0.01138982
0.01153374
0.01168163
0.01183138
0.01198328
0.01214012
0.01230694
0.01249015
0.01269118
0.01287161
0.01268317
0.01250951
0.01231425
0.01213408
0.01196754
0.01180833
0.01165141
0.01149406
0.01133632
0.0111809
0.0110332
0.01089967
0.01078918
0.01071053
0.01067105
0.0106738
0.01071929
0.01080502
0.01092392
0.0110671
0.01122631
0.01139371
0.01156357
0.01173285
0.01190137
0.01207178
0.01224909
0.01243972
0.01264513
0.01282686
0.01264695
0.01247208
0.01227289
0.01208597
0.01190971
0.01173766
0.01156471
0.01138823
0.0112087
0.01103017
0.01085823
0.01070153
0.01057362
0.01048719
0.01044986
0.01045213
0.01049438
0.01058652
0.01072198
0.01088785
0.01107063
0.01126155
0.01145346
0.01164207
0.01182676
0.01201011
0.01219723
0.01239469
0.01260409
0.01278703
0.01261609
0.0124402
0.01223759
0.01204474
0.01185985
0.01167625
0.01148868
0.01129453
0.01109472
0.01089423
0.01069891
0.01052535
0.01040547
0.01032228
0.0102801
0.01028183
0.01032805
0.01041633
0.01054231
0.01072462
0.01093003
0.01114329
0.01135575
0.01156234
0.01176187
0.01195692
0.01215281
0.0123563
0.01256924
0.01275332
0.01259188
0.01241503
0.01220961
0.01201194
0.01181998
0.01162684
0.01142705
0.011218
0.01100079
0.01078117
0.01056916
0.01040354
0.01027718
0.01018716
0.01013995
0.01014114
0.01019158
0.0102861
0.01041836
0.0105915
0.01081335
0.01104547
0.01127581
0.01149762
0.01170961
0.0119144
0.01211751
0.01232599
0.01254185
0.01272698
0.01257499
0.01239756
0.01219018
0.01198909
0.0117921
0.01159211
0.01138347
0.01116352
0.01093351
0.01070023
0.0104808
0.01031873
0.01018573
0.01008869
0.01003699
0.01003772
0.01009194
0.01019303
0.01033174
0.0105013
0.01072985
0.01097521
0.0112188
0.01145182
0.01167286
0.01188466
0.01209295
0.01230498
0.01252296
0.01270889
0.01256642
0.01238866
0.01218026
0.0119774
0.01177778
0.01157421
0.01136092
0.01113511
0.01089843
0.01065851
0.0104416
0.0102751
0.01013744
0.01003614
0.009981751
0.009982199
0.01003868
0.01014378
0.01028702
0.01046088
0.01068669
0.0109384
0.01118904
0.01142804
0.01165385
0.01186932
0.01208031
0.01229419
0.01251329
0.01269966
0.01256662
0.01238886
0.01218046
0.0119776
0.01177797
0.01157439
0.0113611
0.01113527
0.01089858
0.01065865
0.01044171
0.01027521
0.01013754
0.01003625
0.009981865
0.009982311
0.01003878
0.01014386
0.01028708
0.01046094
0.01068675
0.01093846
0.01118909
0.01142809
0.0116539
0.01186937
0.01208038
0.01229427
0.01251339
0.0126998
0.01257555
0.01239815
0.01219078
0.01198969
0.01179267
0.01159265
0.01138399
0.011164
0.01093395
0.01070062
0.01048114
0.01031904
0.01018603
0.01008899
0.01003729
0.01003802
0.01009221
0.01019326
0.01033193
0.01050146
0.01073003
0.01097537
0.01121894
0.01145196
0.01167301
0.01188483
0.01209315
0.01230522
0.01252329
0.01270933
0.01259277
0.012416
0.0122106
0.01201292
0.01182092
0.01162774
0.01142789
0.01121878
0.0110015
0.0107818
0.01056972
0.01040402
0.01027763
0.01018759
0.01014037
0.01014154
0.01019194
0.01028641
0.01041863
0.01059177
0.0108136
0.01104571
0.01127602
0.01149783
0.01170984
0.01191466
0.01211783
0.01232638
0.01254238
0.01272771
0.01261752
0.0124416
0.01223896
0.01204607
0.01186113
0.01167747
0.01148982
0.01129557
0.01109567
0.01089508
0.01069965
0.010526
0.01040603
0.01032278
0.01028058
0.01028227
0.01032844
0.01041668
0.01054267
0.01072496
0.01093033
0.01114355
0.01135598
0.01156255
0.01176209
0.01195717
0.01215311
0.01235668
0.01256975
0.01275404
0.01264874
0.01247384
0.01227461
0.01208762
0.01191129
0.01173916
0.0115661
0.01138951
0.01120986
0.01103119
0.01085913
0.01070233
0.01057431
0.01048774
0.01045035
0.01045256
0.01049477
0.01058694
0.01072237
0.0108882
0.01107093
0.01126179
0.01145364
0.01164221
0.01182689
0.01201023
0.01219737
0.01239488
0.01260438
0.01278746
0.01268526
0.01251156
0.01231625
0.01213601
0.01196938
0.01181006
0.01165302
0.01149554
0.01133765
0.01118208
0.01103423
0.01090057
0.01078996
0.01071121
0.01067165
0.01067434
0.01071978
0.01080546
0.01092431
0.01106742
0.01122656
0.01139388
0.01156368
0.01173289
0.01190137
0.01207173
0.01224903
0.01243968
0.01264516
0.01282698
0.01272609
0.01255372
0.01236278
0.01218993
0.01203375
0.01188794
0.01174746
0.01160942
0.01147334
0.01134106
0.01121656
0.01110531
0.01101385
0.01094906
0.01091664
0.01091998
0.01095952
0.01103233
0.01113285
0.01125441
0.01139
0.01153383
0.01168163
0.01183129
0.01198311
0.01213989
0.01230667
0.01248987
0.01269094
0.01287143
0.01277037
0.01259955
0.01241351
0.01224868
0.01210347
0.01197146
0.01184744
0.01172826
0.01161295
0.01150255
0.01139987
0.01130925
0.01123572
0.01118441
0.01115956
0.01116369
0.01119703
0.01125741
0.01134072
0.01144186
0.0115556
0.01167752
0.01180453
0.01193532
0.01207069
0.01221368
0.01236948
0.01254464
0.0127408
0.0129198
0.01281753
0.01264872
0.01246843
0.01231246
0.01217877
0.0120606
0.01195246
0.0118509
0.01175449
0.01166365
0.0115803
0.0115076
0.01144944
0.01140957
0.01139115
0.01139593
0.01142402
0.01147382
0.01154237
0.01162589
0.01172054
0.01182302
0.01193121
0.01204447
0.01216403
0.01229324
0.01243757
0.01260389
0.01279431
0.01297138
0.01286733
0.01270156
0.01252856
0.01238279
0.01226137
0.012157
0.01206385
0.0119782
0.01189833
0.0118242
0.01175711
0.01169937
0.01165379
0.01162323
0.01160998
0.01161527
0.01163914
0.01168043
0.01173699
0.01180604
0.01188477
0.01197078
0.0120626
0.01216009
0.0122648
0.01238032
0.01251245
0.01266859
0.01285171
0.01302578
0.01291992
0.01275936
0.01259645
0.01246305
0.01235495
0.01226427
0.01218495
0.01211321
0.01204726
0.01198684
0.01193286
0.011887
0.01185135
0.01182805
0.01181883
0.01182455
0.01184523
0.01188
0.01192727
0.011985
0.01205107
0.01212371
0.01220189
0.01228568
0.01237674
0.0124787
0.01259756
0.01274132
0.01291426
0.01308309
0.01297588
0.01282484
0.01267679
0.01255894
0.01246545
0.01238812
0.01232114
0.01226105
0.01220626
0.01215653
0.01211257
0.0120757
0.01204753
0.01202967
0.01202348
0.01202961
0.01204805
0.01207812
0.01211862
0.01216798
0.01222457
0.01228698
0.01235438
0.01242685
0.01250579
0.01259453
0.01269882
0.0128269
0.01298473
0.01314385
0.01303629
0.01290281
0.01277694
0.01267855
0.01260065
0.01253579
0.01247915
0.01242811
0.01238159
0.01233956
0.0123027
0.01227214
0.0122492
0.01223518
0.01223118
0.01223773
0.01225477
0.01228179
0.01231782
0.01236158
0.01241173
0.01246705
0.01252671
0.01259055
0.01265948
0.01273594
0.01282462
0.01293297
0.0130681
0.01320912
0.01310179
0.01299896
0.01290381
0.01282765
0.01276473
0.01271012
0.012661
0.01261598
0.01257466
0.01253736
0.01250483
0.01247812
0.01245841
0.01244681
0.01244427
0.01245124
0.01246766
0.0124931
0.01252673
0.01256745
0.01261405
0.01266538
0.0127205
0.01277893
0.01284081
0.01290729
0.012981
0.01306673
0.01317023
0.01327949
0.01316278
0.013102
0.01303755
0.01297905
0.01292579
0.01287659
0.01283073
0.01278798
0.01274851
0.01271286
0.01268189
0.01265663
0.0126382
0.01262764
0.01262581
0.01263314
0.01264958
0.01267473
0.01270782
0.01274783
0.01279361
0.01284401
0.01289799
0.01295478
0.01301395
0.01307542
0.01313959
0.01320735
0.01327914
0.01334468
0.008484671
0.008469067
0.008449017
0.008427989
0.008406955
0.008386312
0.00836632
0.008347259
0.008329476
0.008313397
0.00829951
0.00828834
0.008280406
0.008276171
0.008275999
0.008280063
0.00828834
0.008300632
0.008316583
0.008335711
0.008357453
0.008381211
0.008406393
0.008432448
0.008458881
0.008485252
0.008511128
0.008535957
0.008558645
0.008575654
0.008468928
0.008444741
0.008416254
0.00838918
0.008364224
0.008341076
0.008319431
0.008299202
0.008280522
0.008263703
0.008249179
0.008237458
0.008229064
0.008224478
0.008224078
0.008228047
0.00823636
0.008248809
0.008265024
0.008284509
0.008306695
0.008331005
0.008356905
0.008383969
0.008411928
0.008440725
0.008470526
0.00850152
0.008532909
0.008558822
0.00844837
0.008415761
0.008377099
0.008341541
0.008310302
0.00828262
0.008257629
0.008234807
0.008214002
0.008195365
0.008179258
0.008166177
0.008156672
0.008151264
0.008150374
0.008154209
0.008162743
0.008175744
0.008192804
0.008213387
0.008236904
0.008262792
0.008290599
0.00832007
0.008351237
0.008384503
0.008420623
0.008460271
0.008502135
0.008536765
0.008426394
0.00838777
0.008340646
0.008297
0.008258984
0.008225836
0.008196398
0.008169844
0.008145798
0.008124281
0.008105612
0.008090309
0.008078987
0.008072254
0.008070606
0.008074294
0.008083295
0.008097337
0.008115938
0.008138481
0.008164313
0.008192855
0.008223703
0.00825674
0.008292235
0.008330914
0.008373844
0.008421715
0.008472259
0.008513089
0.008403981
0.008361477
0.008308111
0.008257708
0.008213322
0.008174447
0.008139892
0.008108703
0.008080395
0.008054937
0.008032667
0.008014189
0.008000251
0.00799161
0.007988893
0.007992427
0.008002197
0.008017862
0.008038813
0.008064288
0.008093502
0.008125791
0.008160734
0.008198269
0.008238782
0.008283135
0.008332444
0.008387149
0.008444061
0.008488865
0.008381572
0.008336615
0.008278772
0.00822294
0.008172845
0.008128295
0.008088211
0.008051654
0.008018143
0.007987687
0.007960725
0.007938027
0.007920567
0.00790934
0.007905183
0.007908549
0.007919437
0.007937396
0.007961615
0.00799109
0.008024813
0.008061944
0.008101959
0.008144751
0.008190706
0.008240678
0.00829568
0.008355841
0.008417289
0.008464578
0.008359487
0.008312935
0.008251818
0.008191593
0.008136412
0.008086348
0.008040471
0.007997939
0.007958361
0.007921866
0.007889081
0.007861042
0.007839057
0.007824469
0.007818437
0.007821608
0.007834004
0.007855009
0.007883508
0.007918133
0.007957533
0.00800059
0.008046577
0.008095258
0.008146931
0.008202362
0.008262418
0.008326969
0.008391706
0.008440588
0.008338055
0.008290401
0.008226774
0.008162889
0.008103122
0.008047719
0.007995882
0.007946881
0.00790046
0.00785694
0.007817214
0.007782688
0.00775511
0.007736332
0.007727949
0.007730883
0.007745194
0.00777004
0.007803877
0.007844835
0.007891076
0.007941094
0.007993868
0.008048962
0.00810654
0.00816726
0.008231868
0.008300064
0.008367304
0.00841727
0.008317666
0.008269189
0.008203533
0.008136493
0.008072532
0.008011976
0.007954102
0.007898276
0.007844389
0.007792996
0.00774534
0.007703263
0.007669119
0.007645416
0.00763429
0.007636948
0.007653504
0.007682875
0.007722996
0.00777136
0.00782549
0.00788337
0.007943604
0.008005504
0.008069089
0.008134933
0.008203711
0.008275043
0.008344299
0.008395065
0.008298775
0.008249637
0.008182273
0.008112457
0.008044645
0.007979164
0.00791531
0.007852501
0.007790767
0.007730927
0.007674627
0.007624282
0.00758312
0.007554388
0.007540626
0.007543016
0.007561706
0.00759569
0.007642507
0.007698913
0.007761659
0.007828031
0.007896158
0.007965066
0.008034639
0.008105405
0.008178026
0.008252126
0.008323082
0.00837449
0.008281887
0.008232201
0.008163375
0.008091118
0.008019817
0.007949743
0.007880157
0.007810486
0.00774088
0.007672462
0.007607271
0.007548766
0.007501626
0.007469581
0.007454656
0.007456803
0.007476179
0.007513043
0.007565502
0.007629868
0.007701381
0.007776409
0.007852499
0.00792834
0.008003689
0.008079071
0.008155194
0.008231743
0.008304163
0.008356113
0.008267537
0.008217398
0.008147344
0.008072999
0.007998652
0.007924486
0.007849682
0.007773646
0.007696623
0.007620059
0.007546727
0.007482409
0.0074345
0.007403886
0.007388747
0.007390677
0.007409872
0.007444959
0.007497809
0.007567755
0.007647259
0.007730501
0.007814122
0.007896432
0.00797707
0.008056591
0.008135788
0.008214446
0.008288114
0.008340529
0.008256263
0.008205756
0.008134723
0.008058705
0.007981885
0.007904343
0.007825168
0.007743718
0.007660315
0.007576851
0.007497698
0.007432592
0.007385279
0.007352101
0.007335349
0.007337064
0.007357508
0.007394902
0.007447006
0.007517411
0.007602618
0.007692744
0.007782869
0.00787071
0.007955802
0.008038754
0.008120463
0.008200826
0.0082755
0.008328302
0.008248484
0.008197729
0.008126015
0.00804882
0.007970244
0.007890277
0.007807924
0.007722495
0.007634403
0.007546069
0.007463743
0.007400195
0.007350407
0.007314781
0.007296419
0.007297953
0.007319703
0.007359349
0.007413828
0.007482553
0.007570792
0.00766573
0.007760652
0.007852573
0.007940914
0.008026339
0.00810984
0.00819141
0.008266798
0.008319882
0.00824457
0.008193687
0.00812162
0.008043814
0.007964323
0.007883083
0.007799048
0.007711497
0.007620943
0.007530197
0.007446901
0.007383333
0.007332085
0.007294944
0.007275592
0.007277015
0.007299574
0.007340624
0.007396504
0.007465188
0.00755433
0.007651636
0.007749092
0.007843186
0.007933246
0.008019968
0.008104404
0.008186603
0.008262366
0.0083156
0.008244725
0.008193841
0.008121774
0.008043966
0.00796447
0.007883225
0.007799184
0.007711626
0.007621063
0.007530309
0.007447003
0.007383428
0.007332176
0.007295033
0.007275679
0.007277098
0.007299651
0.007340693
0.007396566
0.007465246
0.007554386
0.007651689
0.007749141
0.007843231
0.007933288
0.008020009
0.008104446
0.008186649
0.008262419
0.008315661
0.008248941
0.00819819
0.008126473
0.00804927
0.007970682
0.007890699
0.007808326
0.007722875
0.00763476
0.007546401
0.007464047
0.007400476
0.007350673
0.007315037
0.007296667
0.007298188
0.00731992
0.007359545
0.007414006
0.007482723
0.007570956
0.007665884
0.007760794
0.007852704
0.007941038
0.008026459
0.008109963
0.008191544
0.008266952
0.008320061
0.008257016
0.008206514
0.008135477
0.008059444
0.007982603
0.007905033
0.007825826
0.00774434
0.007660898
0.007577392
0.007498196
0.007433046
0.007385702
0.007352501
0.007335729
0.007337423
0.00735784
0.007395206
0.007447289
0.007517688
0.00760288
0.007692987
0.007783092
0.007870914
0.007955994
0.00803894
0.008120652
0.008201029
0.008275733
0.008328574
0.0082686
0.008218451
0.00814838
0.008074012
0.007999634
0.007925428
0.007850579
0.007774492
0.007697415
0.007620794
0.007547403
0.00748303
0.007435063
0.007404409
0.007389236
0.007391134
0.007410298
0.007445357
0.007498196
0.007568123
0.007647602
0.007730815
0.007814405
0.007896688
0.007977305
0.008056812
0.008136006
0.008214675
0.008288372
0.008340828
0.008283222
0.00823352
0.00816467
0.00809238
0.008021038
0.007950915
0.007881271
0.007811536
0.007741862
0.007673372
0.00760811
0.007549538
0.007502332
0.007470223
0.00745525
0.007457357
0.0074767
0.007513543
0.007565976
0.007630311
0.007701787
0.007776774
0.007852822
0.007928624
0.008003939
0.008079294
0.008155402
0.00823195
0.008304388
0.008356366
0.008300342
0.008251186
0.008183792
0.008113938
0.008046077
0.007980538
0.007916615
0.007853731
0.007791916
0.007731992
0.007675609
0.007625185
0.007583951
0.007555151
0.007541332
0.007543675
0.007562324
0.007596272
0.00764305
0.007699413
0.007762111
0.007828431
0.007896503
0.007965359
0.008034883
0.008105607
0.008178198
0.008252284
0.008323243
0.008374664
0.008319427
0.008270929
0.008205241
0.008138158
0.008074143
0.008013521
0.007955572
0.00789966
0.007845681
0.007794195
0.007746445
0.007704279
0.007670054
0.007646276
0.007635087
0.007637691
0.007654196
0.00768352
0.007723593
0.007771902
0.007825974
0.00788379
0.007943957
0.00800579
0.008069311
0.008135097
0.008203829
0.008275132
0.008344377
0.008395146
0.008339969
0.008292293
0.008228632
0.008164701
0.008104877
0.008049405
0.007997485
0.007948393
0.007901873
0.007858251
0.007818424
0.007783801
0.007756134
0.007737275
0.007728822
0.007731693
0.007745947
0.007770737
0.007804516
0.007845411
0.007891583
0.007941524
0.007994218
0.008049229
0.008106726
0.008167371
0.008231917
0.008300069
0.008367286
0.008417246
0.008361511
0.008314938
0.008253787
0.008193518
0.008138278
0.008088142
0.008042181
0.007999554
0.007959873
0.007923272
0.00789038
0.00786224
0.00784016
0.007825486
0.007819377
0.007822479
0.007834811
0.007855753
0.007884184
0.007918737
0.007958056
0.008001024
0.008046915
0.008095497
0.008147071
0.00820241
0.008262388
0.008326881
0.008391585
0.008440454
0.008383667
0.00833869
0.008280816
0.008224942
0.00817479
0.008130171
0.008090002
0.008053349
0.008019734
0.00798917
0.007962099
0.007939298
0.00792174
0.007910424
0.007906185
0.007909477
0.007920295
0.007938183
0.007962327
0.00799172
0.00802535
0.008062379
0.008102282
0.008144957
0.008190796
0.008240659
0.008295567
0.008355657
0.00841706
0.008464331
0.008406112
0.008363591
0.008310199
0.008259758
0.00821532
0.008176379
0.008141743
0.00811046
0.008082049
0.008056483
0.008034105
0.008015523
0.008001486
0.007992754
0.007989953
0.007993409
0.008003104
0.008018692
0.008039561
0.008064944
0.008094054
0.008126227
0.008161044
0.008198445
0.008238825
0.008283052
0.008332251
0.008386869
0.008443727
0.008488507
0.008428534
0.008389897
0.008342753
0.008299075
0.008261014
0.008227805
0.008198292
0.008171648
0.008147502
0.008125879
0.008107104
0.008091697
0.008080277
0.008073453
0.00807172
0.008075327
0.008084249
0.008098209
0.008116721