/*--------------------------------*- C++ -*----------------------------------*\
| =========                 |                                                 |
| \\      /  F ield         | OpenFOAM: The Open Source CFD Toolbox           |
|  \\    /   O peration     | Version:  2506                                  |
|   \\  /    A nd           | Website:  www.openfoam.com                      |
|    \\/     M anipulation  |                                                 |
\*---------------------------------------------------------------------------*/
FoamFile
{
    version     2.0;
    format      ascii;
    arch        "LSB;label=32;scalar=64";
    class       volScalarField;
    location    "3000/air";
    object      k;
}
// * * * * * * * * * * * * * * * * * * * * * * * * * * * * * * * * * * * * * //

dimensions      [0 2 -2 0 0 0 0];

internalField   nonuniform List<scalar> 
33752
(
0.05846321
0.05797513
0.05754424
0.05721423
0.05694911
0.0567269
0.05653512
0.05636622
0.05621644
0.05608479
0.05597239
0.05588173
0.05581605
0.05577862
0.05577247
0.05579913
0.05585856
0.05594951
0.05606949
0.05621528
0.05638347
0.05657116
0.05677666
0.05700015
0.05724453
0.05751642
0.05782766
0.05820011
0.05867101
0.05919477
0.05796956
0.05721009
0.05662675
0.05622051
0.05591658
0.05567401
0.05547027
0.05529286
0.05513567
0.05499679
0.05487715
0.05477946
0.05470735
0.05466466
0.054655
0.05468003
0.05473942
0.05483176
0.05495422
0.05510314
0.05527476
0.05546601
0.05567546
0.05590434
0.05615804
0.05644849
0.05679795
0.05724799
0.05787554
0.0586779
0.057532
0.05661963
0.05589921
0.05539991
0.05503529
0.05475173
0.05451783
0.05431571
0.05413644
0.05397693
0.05383795
0.05372273
0.05363576
0.05358188
0.05356549
0.05358861
0.05365096
0.0537507
0.05388427
0.05404712
0.05423466
0.05444338
0.05467203
0.05492316
0.05520512
0.0555354
0.05594545
0.05648966
0.05725684
0.05821543
0.0571929
0.05620427
0.05539075
0.05481176
0.05438358
0.05404927
0.05377288
0.05353293
0.05331835
0.05312528
0.0529548
0.05281122
0.05270052
0.05262919
0.05260288
0.05262422
0.0526931
0.05280697
0.05296107
0.05314932
0.05336568
0.05360558
0.05386752
0.05415487
0.05447817
0.05485858
0.05533206
0.05595642
0.05681784
0.05785412
0.05691622
0.05588921
0.05501517
0.05437262
0.05388374
0.05349331
0.05316465
0.05287479
0.05261166
0.05237135
0.05215595
0.05197164
0.05182681
0.05173057
0.05169049
0.05171009
0.05178952
0.05192522
0.05211051
0.05233693
0.05259606
0.05288144
0.05319055
0.05352676
0.05390156
0.05433754
0.05487137
0.05555923
0.05648157
0.0575567
0.05668034
0.05563375
0.05471921
0.05402603
0.05348102
0.0530319
0.05264326
0.05229244
0.05196762
0.05166578
0.05139088
0.05115196
0.0509612
0.05083153
0.05077275
0.0507905
0.05088505
0.05105133
0.05127983
0.05155852
0.0518754
0.05222106
0.05259096
0.05298742
0.05342158
0.05391564
0.05450508
0.05524329
0.05620616
0.05730087
0.05647312
0.05541564
0.05447174
0.05373643
0.05313926
0.05263016
0.05217535
0.05175345
0.051354
0.05097591
0.05062592
0.05031716
0.05006773
0.04989428
0.04981115
0.04982667
0.04994145
0.05014822
0.05043334
0.0507797
0.05117029
0.05159143
0.05203542
0.05250246
0.0530022
0.05355565
0.05419677
0.05497684
0.05596899
0.05707437
0.05628736
0.05522266
0.05425512
0.05348264
0.05283588
0.05226592
0.05174004
0.05123816
0.05075189
0.05028306
0.04984203
0.04944905
0.04912681
0.04889828
0.04878395
0.04879635
0.04893679
0.04919475
0.0495508
0.04998092
0.05046145
0.05097307
0.05150368
0.05205031
0.05262067
0.05323457
0.05392499
0.0547421
0.05575782
0.05687018
0.05611954
0.05504891
0.05406062
0.05325378
0.05255909
0.05192779
0.05132741
0.05073871
0.05015557
0.04958343
0.04903941
0.04854818
0.04813764
0.04784093
0.04768714
0.04769513
0.047868
0.04818886
0.04862961
0.04915999
0.04974469
0.05035981
0.05098748
0.05162079
0.05226546
0.0529406
0.05367896
0.05453049
0.05556702
0.05668511
0.05596878
0.05489261
0.05388525
0.05304607
0.0523051
0.05161298
0.0509368
0.05025765
0.04957177
0.04888783
0.04823479
0.04763701
0.04712937
0.04675644
0.04655917
0.04656448
0.04677579
0.04716774
0.04770054
0.04833067
0.04902992
0.04975781
0.05048919
0.0512133
0.05193402
0.05267027
0.05345522
0.05433938
0.0553952
0.05651884
0.05583606
0.05475466
0.05372976
0.05286058
0.05207597
0.05132547
0.05057524
0.04980623
0.04901574
0.04822515
0.04745747
0.04673346
0.04610663
0.0456574
0.04544179
0.04544455
0.04566904
0.04613172
0.04678042
0.04753391
0.04834305
0.04918319
0.05002034
0.05083537
0.05163087
0.05242613
0.05325532
0.05417002
0.05524386
0.0563731
0.0557234
0.05463768
0.05359732
0.05270149
0.05187771
0.05107416
0.05025568
0.04940275
0.04851547
0.04762224
0.04672773
0.04586928
0.04521027
0.04474286
0.04449252
0.04449229
0.04474661
0.04522423
0.04589898
0.04678576
0.04771637
0.0486652
0.04960013
0.05050083
0.05136569
0.0522149
0.05308405
0.05402619
0.05511631
0.05625116
0.05563628
0.05454561
0.05349233
0.05257459
0.05171845
0.05087067
0.04999466
0.04907114
0.04809931
0.04711013
0.04609876
0.04520792
0.04449156
0.04395943
0.04367073
0.0436674
0.04395519
0.04449413
0.04522577
0.04613957
0.04718652
0.04823041
0.04925432
0.05022742
0.05115105
0.05204548
0.05294792
0.05391319
0.0550171
0.0561574
0.0555744
0.05448133
0.05341908
0.05248576
0.05160647
0.05072682
0.04980904
0.04883301
0.04779787
0.04673388
0.04564753
0.04474021
0.04396016
0.0433751
0.04305511
0.04304897
0.04336384
0.04395316
0.04474726
0.04567759
0.04679676
0.0479138
0.0490059
0.05003311
0.05099962
0.05192684
0.05285343
0.05383515
0.05494902
0.05609363
0.05554289
0.05444814
0.05338118
0.05243978
0.05154845
0.05065216
0.04971247
0.04870718
0.0476391
0.04653283
0.04543022
0.04449041
0.04367415
0.04305926
0.04272095
0.04271288
0.0430435
0.04366143
0.04449113
0.04545338
0.04658808
0.04774546
0.04887522
0.04993183
0.05092092
0.0518653
0.05280444
0.05379473
0.0549139
0.05606105
0.05554285
0.05444818
0.05338126
0.05243988
0.05154855
0.05065227
0.04971258
0.04870729
0.04763919
0.0465329
0.04543023
0.04449039
0.04367412
0.04305922
0.04272092
0.04271285
0.04304346
0.04366138
0.04449107
0.04545332
0.04658806
0.04774544
0.04887517
0.0499318
0.05092092
0.05186536
0.05280458
0.05379498
0.05491431
0.0560617
0.05557414
0.05448139
0.05341929
0.05248603
0.05160677
0.05072712
0.04980933
0.04883329
0.0477981
0.04673404
0.04564751
0.04474011
0.04396002
0.04337494
0.04305494
0.04304878
0.04336363
0.04395292
0.04474699
0.04567734
0.04679664
0.04791365
0.04900569
0.05003302
0.05099968
0.05192712
0.05285399
0.05383604
0.05495039
0.05609578
0.05563522
0.05454563
0.05349266
0.05257502
0.0517189
0.0508711
0.04999505
0.04907149
0.04809961
0.04711029
0.04609874
0.04520767
0.04449123
0.04395904
0.04367031
0.04366694
0.04395468
0.04449358
0.04522519
0.0461392
0.04718612
0.04822994
0.04925385
0.05022721
0.05115129
0.05204614
0.05294924
0.0539151
0.05501975
0.05616138
0.05572397
0.05463816
0.05359785
0.05270205
0.05187825
0.05107465
0.05025609
0.04940308
0.04851569
0.04762225
0.04672744
0.04586899
0.04520968
0.04474215
0.04449173
0.04449143
0.04474568
0.04522325
0.04589827
0.04678499
0.04771551
0.04866419
0.04959911
0.05050013
0.05136548
0.05221515
0.05308502
0.05402781
0.05511873
0.05625497
0.05583668
0.05475523
0.05373036
0.05286117
0.05207651
0.05132592
0.05057557
0.04980641
0.04901577
0.04822497
0.04745708
0.04673298
0.046106
0.0456563
0.04544057
0.04544322
0.04566763
0.04613056
0.04677917
0.04753253
0.04834146
0.0491814
0.05001857
0.05083379
0.0516296
0.0524252
0.05325483
0.05417005
0.05524456
0.05637475
0.0559693
0.05489314
0.0538858
0.0530466
0.05230555
0.05161329
0.05093693
0.05025756
0.04957144
0.04888726
0.04823398
0.04763604
0.04712825
0.04675515
0.04655772
0.0465629
0.04677407
0.04716588
0.0476985
0.04832839
0.04902736
0.04975517
0.05048658
0.05121084
0.05193178
0.05266831
0.05345359
0.05433816
0.05539452
0.05651879
0.0561199
0.05504929
0.05406102
0.05325415
0.05255936
0.05192787
0.05132724
0.05073823
0.05015477
0.04958232
0.04903798
0.04854647
0.0481357
0.04783878
0.04768481
0.04769262
0.04786529
0.04818591
0.04862641
0.04915656
0.04974116
0.05035626
0.050984
0.05161747
0.05226236
0.05293774
0.05367639
0.05452825
0.05556518
0.05668374
0.05628745
0.05522278
0.05425527
0.05348275
0.05283587
0.05226568
0.05173948
0.05123722
0.05075053
0.05028129
0.04983988
0.04944653
0.04912397
0.04889515
0.04878056
0.04879271
0.04893291
0.04919065
0.04954649
0.04997647
0.05045695
0.05096861
0.05149935
0.05204616
0.05261674
0.05323087
0.05392156
0.05473894
0.05575495
0.05686768
0.05647285
0.05541541
0.05447153
0.05373619
0.05313888
0.05262952
0.05217436
0.05175201
0.05135207
0.05097347
0.050623
0.0503138
0.05006395
0.04989013
0.04980668
0.04982192
0.04993645
0.05014301
0.05042798
0.05077428
0.05116488
0.05158611
0.05203026
0.0524975
0.05299746
0.05355116
0.05419255
0.0549729
0.05596537
0.0570711
0.05667962
0.05563307
0.05471857
0.05402535
0.0534802
0.05303081
0.05264178
0.05229048
0.05196511
0.05166271
0.05138725
0.0511478
0.05095656
0.05082647
0.05076731
0.05078475
0.05087905
0.05104516
0.05127356
0.05155223
0.05186917
0.05221496
0.05258504
0.05298171
0.0534161
0.05391042
0.05450012
0.05523863
0.05620184
0.05729692
0.056915
0.05588805
0.05501405
0.05437147
0.05388244
0.05349173
0.05316268
0.05287232
0.05260862
0.05236771
0.0521517
0.05196681
0.05182144
0.05172474
0.05168425
0.05170352
0.05178271
0.05191826
0.05210348
0.05232992
0.05258914
0.05287467
0.05318398
0.0535204
0.05389545
0.05433167
0.05486578
0.05555393
0.05647662
0.05755211
0.05719117
0.05620261
0.05538914
0.05481012
0.0543818
0.05404721
0.05377043
0.05352999
0.05331484
0.05312116
0.05295006
0.05280587
0.05269461
0.05262278
0.05259604
0.05261706
0.05268569
0.05279943
0.05295347
0.05314177
0.05335823
0.0535983
0.05386045
0.05414802
0.05447155
0.05485221
0.05532595
0.0559506
0.05681236
0.057849
0.0575298
0.05661752
0.05589716
0.05539783
0.05503307
0.05474925
0.05451499
0.05431239
0.05413257
0.05397245
0.05383285
0.05371703
0.0536295
0.05357511
0.05355828
0.05358108
0.0536432
0.05374281
0.05387634
0.05403924
0.05422691
0.0544358
0.05466467
0.05491602
0.05519822
0.05552874
0.05593902
0.0564835
0.057251
0.05820992
0.05796701
0.05720762
0.05662433
0.05621807
0.05591403
0.05567123
0.05546716
0.0552893
0.05513158
0.05499212
0.05487187
0.05477359
0.05470093
0.05465775
0.05464767
0.05467239
0.05473157
0.05482379
0.05494623
0.05509522
0.05526697
0.0554584
0.05566807
0.05589719
0.05615112
0.05644179
0.05679147
0.05724173
0.05786955
0.05867221
0.05846046
0.05797243
0.05754159
0.05721159
0.05694638
0.05672398
0.05653188
0.05636257
0.05621229
0.05608009
0.05596712
0.0558759
0.05580969
0.0557718
0.05576526
0.05579163
0.05585087
0.05594172
0.0560617
0.05620757
0.0563759
0.05656378
0.0567695
0.05699322
0.05723782
0.05750991
0.05782134
0.05819399
0.0586651
0.05918906
0.1063046
0.1061419
0.1058998
0.1056345
0.1053658
0.1051009
0.1048433
0.1045958
0.104362
0.104147
0.1039574
0.1038007
0.1036849
0.1036172
0.1036033
0.1036463
0.103746
0.1038997
0.104102
0.1043458
0.1046228
0.1049249
0.1052442
0.1055743
0.1059097
0.1062455
0.1065759
0.1068913
0.1071693
0.1073501
0.1061403
0.10584
0.1054878
0.1051529
0.1048409
0.1045474
0.1042686
0.1040033
0.1037533
0.1035231
0.1033191
0.1031495
0.1030228
0.1029468
0.1029281
0.1029697
0.1030717
0.1032309
0.1034415
0.1036956
0.1039844
0.1042991
0.1046322
0.1049778
0.1053325
0.1056955
0.1060687
0.1064549
0.1068467
0.107171
0.1058914
0.1054814
0.1050115
0.1045843
0.1042036
0.1038565
0.1035329
0.1032276
0.10294
0.102674
0.1024366
0.1022372
0.1020856
0.1019915
0.1019624
0.1020022
0.102111
0.1022848
0.1025166
0.1027972
0.1031161
0.1034635
0.1038313
0.1042145
0.1046119
0.1050272
0.1054691
0.105949
0.1064621
0.1069005
0.1056145
0.1051353
0.1045735
0.1040599
0.1036035
0.1031893
0.1028038
0.1024391
0.1020937
0.1017716
0.1014812
0.1012341
0.1010431
0.1009201
0.100875
0.1009129
0.1010337
0.1012325
0.1015002
0.1018248
0.1021936
0.1025942
0.1030172
0.1034575
0.1039151
0.1043964
0.1049138
0.1054812
0.1060884
0.1065982
0.1053297
0.1048079
0.1041779
0.103589
0.1030566
0.1025669
0.1021054
0.1016637
0.1012403
0.1008406
0.100476
0.1001615
0.09991428
0.09975042
0.09968292
0.09971866
0.09985762
0.1000932
0.1004133
0.1008019
0.1012418
0.1017173
0.102216
0.1027314
0.1032635
0.1038195
0.1044124
0.1050557
0.1057324
0.1062856
0.105045
0.1044953
0.1038125
0.1031571
0.1025494
0.1019775
0.1014276
0.1008918
0.1003699
0.09987027
0.09940816
0.09900433
0.09868198
0.09846324
0.09836583
0.09839917
0.09856337
0.09884946
0.09924067
0.0997152
0.1002497
0.1008228
0.1014181
0.102026
0.1026453
0.1032825
0.1039504
0.1046603
0.1053902
0.1059716
0.1047646
0.1041945
0.103468
0.1027514
0.1020683
0.1014082
0.1007584
0.100112
0.09947121
0.09884804
0.09826362
0.09774625
0.09732766
0.09703818
0.09690222
0.09693277
0.09713023
0.09748218
0.09796547
0.09855013
0.09920426
0.09989883
0.1006115
0.1013287
0.102047
0.1027718
0.1035148
0.1042858
0.1050596
0.1056613
0.1044918
0.1039049
0.1031395
0.1023645
0.1016052
0.1008516
0.1000915
0.09931938
0.09853994
0.09776992
0.09703772
0.09638135
0.09584355
0.09546602
0.09528166
0.09530888
0.09554848
0.09598325
0.09658128
0.09730164
0.09810117
0.09894099
0.09979121
0.1006335
0.1014614
0.1022794
0.1030985
0.1039277
0.1047405
0.1053588
0.1042306
0.1036286
0.1028269
0.1019954
0.1011592
0.1003081
0.0994298
0.09851941
0.09758423
0.09664619
0.09574226
0.09492165
0.09424131
0.09375698
0.09351326
0.09353651
0.0938282
0.09436398
0.09510001
0.09598134
0.0969507
0.09795746
0.09896292
0.09994322
0.1008894
0.1018049
0.1027009
0.1035868
0.1044359
0.1050692
0.1039864
0.1033702
0.1025344
0.1016483
0.100736
0.09978622
0.0987856
0.0977293
0.0966267
0.09550486
0.09440973
0.09340248
0.09255749
0.09194628
0.09163007
0.09164891
0.09200507
0.09266158
0.09355817
0.09462219
0.09578127
0.09697137
0.09814439
0.09927098
0.1003399
0.1013546
0.102327
0.1032679
0.1041514
0.1047988
0.1037657
0.1031365
0.102269
0.1013317
0.1003469
0.0993014
0.0981802
0.0969777
0.09570453
0.09439247
0.09309343
0.09188218
0.09084685
0.09008287
0.0896707
0.08968434
0.09012743
0.09093059
0.09201367
0.09328012
0.09464047
0.09602097
0.09736526
0.098639
0.09982943
0.1009406
0.1019863
0.102979
0.1038946
0.1045551
0.103576
0.1029354
0.1020399
0.1010569
0.1000069
0.09887411
0.09764158
0.09630229
0.09486716
0.09337042
0.09186652
0.09044124
0.08918141
0.0882686
0.087787
0.08779547
0.08829891
0.08924354
0.09054822
0.09202852
0.09359178
0.09515735
0.09666467
0.09807655
0.09937955
0.100579
0.1016909
0.10273
0.1036742
0.1043467
0.1034255
0.1027753
0.1018569
0.1008365
0.09973245
0.098527
0.09720082
0.09574521
0.09417013
0.09250926
0.09081995
0.08917084
0.08775988
0.08672354
0.08617319
0.08617687
0.08674114
0.08780288
0.08925347
0.09095864
0.09270881
0.09443788
0.09608648
0.09761615
0.09901414
0.1002874
0.1014542
0.1025316
0.1034994
0.104182
0.1033204
0.1026635
0.1017289
0.1006818
0.09953921
0.09828143
0.09688737
0.09534667
0.093668
0.09188293
0.09004645
0.08825043
0.08671749
0.08558674
0.08498295
0.08498294
0.08559434
0.08674583
0.08831527
0.09016481
0.09206629
0.09391908
0.09567258
0.09728861
0.09875561
0.1000822
0.1012884
0.1023933
0.1033779
0.1040678
0.1032665
0.1026061
0.1016631
0.1006021
0.0994393
0.0981541
0.09672431
0.09513846
0.09340447
0.09155086
0.08962329
0.0877619
0.08616347
0.08498115
0.08434789
0.08434579
0.08498311
0.08618366
0.08781703
0.08973054
0.09172538
0.09364642
0.09545615
0.09711799
0.09862137
0.09997595
0.1012028
0.102322
0.1033155
0.1040093
0.1032667
0.1026063
0.1016634
0.1006024
0.09943958
0.09815436
0.09672453
0.09513865
0.09340461
0.09155097
0.08962336
0.08776191
0.08616341
0.08498104
0.08434772
0.08434559
0.08498289
0.08618344
0.08781681
0.08973032
0.09172513
0.09364616
0.09545589
0.09711777
0.09862119
0.09997582
0.1012028
0.102322
0.1033157
0.1040096
0.1033211
0.1026643
0.1017298
0.1006827
0.09954002
0.09828216
0.096888
0.09534718
0.09366838
0.09188319
0.09004659
0.08825038
0.08671727
0.08558634
0.08498239
0.08498228
0.08559364
0.0867451
0.08831454
0.09016407
0.09206547
0.09391824
0.09567177
0.09728789
0.09875504
0.1000818
0.1012883
0.1023933
0.1033784
0.1040686
0.1034266
0.1027766
0.1018583
0.1008378
0.09973371
0.0985281
0.09720174
0.09574592
0.09417062
0.09250949
0.09081993
0.08917059
0.08775937
0.08672276
0.08617217
0.08617569
0.08673985
0.08780152
0.08925205
0.09095712
0.09270721
0.09443628
0.09608495
0.09761478
0.09901301
0.1002866
0.1014538
0.1025316
0.1034999
0.1041831
0.103578
0.1029373
0.1020418
0.1010587
0.1000085
0.09887545
0.09764264
0.09630302
0.09486754
0.09337043
0.09186614
0.09044054
0.08918041
0.08826728
0.08778537
0.0877936
0.08829686
0.08924134
0.09054585
0.09202599
0.09358919
0.09515475
0.09666215
0.09807423
0.09937752
0.1005774
0.1016897
0.1027293
0.1036741
0.1043472
0.1037681
0.1031389
0.1022713
0.1013337
0.1003487
0.09930281
0.09818119
0.09697823
0.09570457
0.09439201
0.09309247
0.09188075
0.090845
0.09008076
0.08966823
0.08968155
0.09012438
0.09092715
0.09201001
0.09327634
0.09463661
0.0960171
0.09736148
0.09863542
0.09982614
0.1009376
0.1019837
0.1029769
0.1038931
0.1045541
0.1039891
0.1033729
0.1025368
0.1016504
0.1007378
0.0997875
0.09878632
0.0977294
0.09662615
0.09550366
0.09440789
0.09340003
0.09255448
0.09194275
0.09162608
0.09164453
0.09200036
0.09265662
0.09355299
0.09461687
0.09577587
0.09696599
0.09813912
0.09926593
0.1003351
0.1013501
0.102323
0.1032643
0.1041483
0.1047961
0.1042335
0.1036313
0.1028294
0.1019975
0.1011608
0.100309
0.09943003
0.09851886
0.09758286
0.096644
0.09573926
0.09491789
0.09423685
0.09375188
0.09350761
0.0935304
0.09382172
0.0943572
0.09509302
0.09597422
0.09694356
0.09795039
0.09895601
0.09993655
0.100883
0.1017988
0.1026952
0.1035816
0.1044312
0.1050648
0.1044946
0.1039075
0.1031418
0.1023664
0.1016064
0.100852
0.1000911
0.09931802
0.09853759
0.09776656
0.09703338
0.0963761
0.09583745
0.09545917
0.09527416
0.09530085
0.09554004
0.09597451
0.09657235
0.09729262
0.09809217
0.09893212
0.09978255
0.1006251
0.1014534
0.1022717
0.1030912
0.1039209
0.104734
0.1053527
0.1047673
0.104197
0.1034701
0.1027529
0.1020691
0.1014081
0.1007572
0.1001097
0.09946776
0.09884342
0.09825786
0.09773941
0.09731985
0.0970295
0.0968928
0.09692277
0.09711979
0.09747143
0.09795456
0.09853918
0.09919339
0.09988814
0.100601
0.1013186
0.1020373
0.1027625
0.1035059
0.1042773
0.1050515
0.1056535
0.1050474
0.1044975
0.1038143
0.1031582
0.1025497
0.1019767
0.1014257
0.1008885
0.1003654
0.09986438
0.09940097
0.09899593
0.09867248
0.09845278
0.09835456
0.09838726
0.098551
0.09883678
0.09922785
0.09970239
0.100237
0.1008104
0.1014059
0.1020142
0.1026339
0.1032716
0.1039399
0.1046503
0.1053806
0.1059622
0.1053318
0.1048098
0.1041792
0.1035896
0.1030563
0.1025654
0.1021027
0.1016595
0.1012346
0.1008336
0.1004675
0.1001517
0.09990325
0.09973834
0.09966996
0.09970502
0.09984349
0.1000788
0.1003988
0.1007874
0.1012275
0.1017032
0.1022024
0.1027182
0.1032507
0.1038071
0.1044005
0.1050441
0.1057212
0.1062748
0.1056164
0.1051368
0.1045745
0.1040602
0.1036027
0.1031873
0.1028004
0.1024342
0.1020872
0.1017635
0.1014716
0.1012231
0.1010307
0.1009067
0.1008607
0.1008978
0.1010181
0.1012166
0.1014842
0.1018089
0.1021779
0.1025788
0.1030023
0.103443
0.103901
0.1043828
0.1049006
0.1054684
0.106076
0.1065861
0.1058931
0.1054827
0.1050122
0.1045842
0.1042023
0.1038539
0.1035289
0.1032219
0.1029327
0.102665
0.1024261
0.1022252
0.1020723
0.101977
0.1019469
0.101986
0.1020942
0.1022678
0.1024995
0.1027802
0.1030994
0.1034471
0.1038154
0.1041991
0.1045969
0.1050127
0.105455
0.1059353
0.1064487
0.1068874
0.1061418
0.1058411
0.1054883
0.1051525
0.1048394
0.1045445
0.1042641
0.1039972
0.1037456
0.1035136
0.103308
0.1031368
0.1030088
0.1029317
0.1029119
0.1029528
0.1030543
0.1032132
0.1034237
0.1036779
0.103967
0.1042822
0.1046157
0.1049618
0.1053169
0.1056804
0.106054
0.1064405
0.1068326
0.1071572
0.1063061
0.106143
0.1059001
0.1056339
0.105364
0.1050978
0.1048386
0.1045895
0.104354
0.1041373
0.103946
0.1037878
0.1036706
0.1036017
0.1035868
0.1036291
0.1037283
0.1038817
0.104084
0.1043279
0.1046052
0.1049077
0.1052275
0.1055581
0.1058939
0.1062302
0.106561
0.1068767
0.107155
0.1073359
0.1250005
0.1249162
0.1247666
0.1245734
0.1243532
0.1241175
0.1238744
0.1236306
0.1233932
0.12317
0.1229703
0.1228039
0.1226802
0.1226081
0.122594
0.1226415
0.1227504
0.1229175
0.1231363
0.1233982
0.1236932
0.1240105
0.12434
0.1246719
0.1249971
0.1253065
0.1255896
0.1258323
0.1260155
0.1261163
0.1249127
0.124785
0.1245862
0.1243515
0.1240984
0.1238357
0.123569
0.1233035
0.1230455
0.1228027
0.1225848
0.122402
0.122265
0.1221831
0.1221636
0.1222103
0.1223232
0.1224985
0.1227293
0.123006
0.1233179
0.1236536
0.1240024
0.1243549
0.1247028
0.1250387
0.1253546
0.1256394
0.1258732
0.1260191
0.1247549
0.1245781
0.1243128
0.124014
0.1237042
0.1233911
0.1230779
0.1227682
0.1224675
0.1221836
0.1219273
0.1217103
0.1215451
0.1214428
0.121412
0.1214575
0.121579
0.1217722
0.1220287
0.1223372
0.1226853
0.12306
0.1234497
0.1238448
0.1242379
0.1246235
0.1249961
0.1253458
0.1256479
0.1258444
0.1245487
0.1243306
0.1240014
0.1236332
0.1232549
0.1228754
0.1224972
0.1221227
0.1217576
0.1214109
0.121095
0.1208246
0.1206152
0.1204809
0.1204327
0.1204764
0.1206121
0.120834
0.1211316
0.1214907
0.1218956
0.1223308
0.1227828
0.1232408
0.1236977
0.1241488
0.1245897
0.1250094
0.1253765
0.1256153
0.1243111
0.1240604
0.1236748
0.1232383
0.122786
0.1223287
0.1218693
0.1214107
0.1209595
0.1205267
0.1201282
0.1197831
0.1195114
0.1193319
0.1192591
0.1193008
0.1194571
0.1197204
0.1200767
0.1205074
0.1209921
0.1215108
0.1220468
0.1225872
0.1231238
0.1236518
0.1241663
0.1246545
0.1250786
0.1253506
0.1240541
0.1237767
0.1233411
0.1228387
0.1223087
0.1217643
0.1212092
0.1206477
0.1200879
0.1195446
0.1190384
0.1185946
0.1182401
0.1180001
0.1178945
0.1179339
0.1181184
0.1184377
0.1188729
0.1193989
0.1199884
0.1206153
0.1212577
0.1218995
0.1225304
0.1231447
0.1237363
0.1242904
0.1247648
0.1250637
0.1237864
0.1234858
0.1230044
0.1224373
0.1218267
0.1211869
0.1205228
0.1198398
0.1191491
0.1184697
0.1178287
0.1172598
0.1167994
0.1164818
0.116334
0.1163706
0.1165919
0.1169839
0.1175206
0.1181681
0.1188896
0.1196505
0.1204222
0.121184
0.1219229
0.1226318
0.1233037
0.1239222
0.1244425
0.1247644
0.1235152
0.1231934
0.1226685
0.1220375
0.1213434
0.1206011
0.119816
0.1189948
0.1181514
0.1173102
0.1165066
0.1157848
0.1151937
0.1147795
0.114579
0.1146124
0.1148801
0.1153631
0.1160259
0.1168226
0.1177042
0.1186249
0.119548
0.1204471
0.1213064
0.1221173
0.1228723
0.1235546
0.1241184
0.1244615
0.1232479
0.1229061
0.1223393
0.121645
0.1208658
0.1200159
0.1191005
0.1181271
0.1171123
0.1160862
0.1150935
0.1141916
0.1134444
0.1129139
0.1126498
0.1126794
0.1130036
0.1135967
0.1144105
0.1153839
0.1164521
0.1175564
0.1186502
0.1197012
0.1206905
0.1216088
0.122449
0.1231946
0.1238003
0.1241634
0.1229929
0.122632
0.1220253
0.1212693
0.1204053
0.1194461
0.1183957
0.1172616
0.1160625
0.1148342
0.1136312
0.1125253
0.1115989
0.1109334
0.1105946
0.1106199
0.1110109
0.1117324
0.1127204
0.1138941
0.1151707
0.1164765
0.1177545
0.1189664
0.120091
0.1211189
0.122044
0.1228516
0.1234975
0.1238796
0.1227592
0.1223808
0.1217368
0.1209227
0.1199778
0.1189125
0.1177291
0.1164339
0.1150471
0.1136093
0.1121843
0.1108588
0.1097349
0.1089178
0.1084944
0.108515
0.1089819
0.1098484
0.111029
0.1124193
0.1139163
0.1154314
0.1168975
0.1182713
0.1195298
0.1206644
0.121671
0.1225371
0.1232205
0.1236203
0.1225565
0.1221627
0.1214858
0.1206199
0.1196021
0.1184402
0.1171339
0.1156881
0.1141233
0.1124834
0.1108397
0.1092918
0.1079606
0.1069781
0.1064663
0.1064818
0.1070281
0.1080536
0.1094378
0.1110479
0.1127625
0.11448
0.1161251
0.1176506
0.119033
0.1202652
0.1213454
0.1222639
0.1229806
0.1233961
0.1223945
0.121988
0.1212843
0.120376
0.1192979
0.1180556
0.116646
0.1150723
0.1133544
0.1115379
0.1096991
0.1079444
0.1064242
0.1053115
0.1047255
0.1047365
0.1053487
0.1064983
0.1080681
0.1098836
0.1117931
0.1136876
0.115487
0.1171416
0.1186285
0.1199422
0.1210834
0.1220449
0.1227889
0.1232173
0.1222812
0.1218658
0.1211431
0.1202045
0.1190834
0.1177831
0.1162988
0.1146318
0.112801
0.1108526
0.1088652
0.1069478
0.1052994
0.1040862
0.1034434
0.1034507
0.1041135
0.1053591
0.1070546
0.1090319
0.1110901
0.1131169
0.1150301
0.1167793
0.1183419
0.1197143
0.1208992
0.1218915
0.1226549
0.1230925
0.1222229
0.1218029
0.1210703
0.120116
0.1189724
0.1176418
0.1161181
0.1144017
0.112511
0.1104918
0.1084239
0.1064227
0.1047034
0.1034351
0.1027611
0.1027663
0.1034568
0.104755
0.1065201
0.1085808
0.1107196
0.1128174
0.1147912
0.1165904
0.1181929
0.1195961
0.120804
0.1218123
0.1225859
0.1230283
0.1222232
0.1218032
0.1210705
0.1201162
0.1189726
0.1176419
0.1161182
0.1144018
0.112511
0.1104918
0.1084238
0.1064226
0.1047032
0.1034348
0.1027607
0.1027659
0.1034563
0.1047545
0.1065196
0.1085803
0.1107191
0.1128168
0.1147907
0.1165899
0.1181924
0.1195957
0.1208036
0.121812
0.1225857
0.1230281
0.1222819
0.1218665
0.1211438
0.1202052
0.119084
0.1177835
0.1162991
0.1146319
0.1128009
0.1108524
0.1088648
0.1069472
0.1052986
0.1040852
0.1034422
0.1034494
0.1041121
0.1053576
0.107053
0.1090302
0.1110884
0.1131152
0.1150285
0.1167777
0.1183405
0.119713
0.1208982
0.1218906
0.1226542
0.123092
0.1223957
0.1219892
0.1212854
0.120377
0.1192988
0.1180561
0.1166464
0.1150724
0.1133541
0.1115373
0.1096982
0.1079432
0.1064227
0.1053097
0.1047234
0.1047341
0.1053462
0.1064956
0.1080653
0.1098806
0.1117901
0.1136846
0.1154841
0.1171389
0.118626
0.1199399
0.1210814
0.1220432
0.1227875
0.1232161
0.1225583
0.1221643
0.1214873
0.1206212
0.119603
0.1184408
0.1171341
0.1156879
0.1141226
0.1124823
0.110838
0.1092897
0.1079581
0.1069751
0.1064629
0.1064781
0.1070241
0.1080494
0.1094334
0.1110433
0.112758
0.1144755
0.1161207
0.1176464
0.1190291
0.1202616
0.1213422
0.1222611
0.1229782
0.123394
0.1227613
0.1223828
0.1217385
0.1209241
0.1199787
0.118913
0.1177289
0.1164331
0.1150457
0.1136073
0.1121816
0.1108554
0.1097309
0.1089133
0.1084894
0.1085096
0.1089761
0.1098423
0.1110227
0.1124129
0.1139099
0.1154251
0.1168914
0.1182654
0.1195243
0.1206593
0.1216663
0.1225328
0.1232166
0.1236167
0.1229952
0.1226342
0.1220271
0.1212706
0.1204061
0.1194462
0.1183951
0.1172601
0.1160601
0.1148309
0.1136271
0.1125204
0.1115932
0.110927
0.1105875
0.1106123
0.1110029
0.1117241
0.1127119
0.1138855
0.1151621
0.1164681
0.1177463
0.1189586
0.1200837
0.121112
0.1220376
0.1228457
0.1234919
0.1238743
0.1232504
0.1229084
0.1223412
0.1216463
0.1208663
0.1200155
0.1190991
0.1181246
0.1171087
0.1160815
0.1150878
0.1141847
0.1134366
0.1129052
0.1126404
0.1126694
0.1129931
0.1135858
0.1143995
0.1153729
0.1164412
0.1175458
0.1186399
0.1196913
0.1206811
0.1216
0.1224406
0.1231868
0.1237929
0.1241563
0.1235178
0.1231957
0.1226702
0.1220385
0.1213435
0.1206
0.1198137
0.1189912
0.1181465
0.1173039
0.116499
0.115776
0.1151837
0.1147684
0.1145671
0.1145998
0.114867
0.1153496
0.1160123
0.1168091
0.1176908
0.1186119
0.1195354
0.120435
0.1212949
0.1221064
0.122862
0.1235448
0.1241091
0.1244524
0.123789
0.1234881
0.123006
0.122438
0.1218263
0.1211851
0.1205195
0.1198351
0.1191428
0.1184617
0.1178191
0.1172488
0.1167871
0.1164683
0.1163195
0.1163554
0.1165761
0.1169678
0.1175044
0.118152
0.1188737
0.119635
0.1204073
0.1211697
0.1219093
0.1226188
0.1232914
0.1239104
0.1244312
0.1247534
0.1240567
0.1237789
0.1233425
0.122839
0.1223078
0.1217618
0.121205
0.1206417
0.1200801
0.119535
0.119027
0.1185815
0.1182255
0.1179843
0.1178776
0.1179161
0.1181
0.118419
0.1188541
0.1193803
0.1199701
0.1205975
0.1212406
0.121883
0.1225147
0.1231297
0.1237221
0.1242768
0.1247517
0.1250508
0.1243137
0.1240625
0.123676
0.1232383
0.1227845
0.1223255
0.1218642
0.1214036
0.1209503
0.1205155
0.1201151
0.1197682
0.1194949
0.1193139
0.1192399
0.1192808
0.1194364
0.1196994
0.1200556
0.1204865
0.1209716
0.1214909
0.1220276
0.1225688
0.1231062
0.123635
0.1241503
0.1246391
0.1250637
0.125336
0.1245514
0.1243327
0.1240025
0.1236329
0.123253
0.1228716
0.1224912
0.1221146
0.1217473
0.1213984
0.1210803
0.1208081
0.1205969
0.1204611
0.1204116
0.1204544
0.1205894
0.120811
0.1211085
0.1214679
0.1218732
0.1223091
0.1227618
0.1232207
0.1236785
0.1241304
0.1245721
0.1249924
0.1253601
0.1255992
0.1247576
0.1245803
0.1243138
0.1240136
0.123702
0.1233867
0.1230714
0.1227593
0.1224562
0.12217
0.1219114
0.1216924
0.1215254
0.1214215
0.1213894
0.1214338
0.1215547
0.1217476
0.122004
0.1223129
0.1226614
0.1230368
0.1234273
0.1238233
0.1242174
0.1246039
0.1249773
0.1253276
0.1256302
0.125827
0.1249155
0.1247872
0.1245872
0.124351
0.1240959
0.123831
0.123562
0.1232941
0.1230336
0.1227884
0.1225681
0.1223833
0.1222443
0.1221608
0.1221399
0.1221856
0.1222978
0.1224728
0.1227036
0.1229806
0.123293
0.1236294
0.1239791
0.1243325
0.1246814
0.1250182
0.125335
0.1256204
0.1258547
0.1260008
0.1250034
0.1249184
0.1247677
0.1245728
0.1243506
0.1241128
0.1238672
0.1236209
0.1233809
0.1231553
0.1229533
0.1227846
0.1226591
0.1225852
0.1225698
0.1226162
0.1227245
0.1228912
0.1231101
0.1233723
0.1236678
0.1239859
0.1243163
0.1246491
0.1249753
0.1252856
0.1255695
0.1258128
0.1259965
0.1260976
0.1356972
0.1356435
0.1355391
0.1353925
0.1352137
0.1350118
0.1347951
0.134571
0.134348
0.1341352
0.1339429
0.1337816
0.1336618
0.1335926
0.1335809
0.1336304
0.1337411
0.1339092
0.134128
0.1343882
0.1346789
0.1349886
0.1353058
0.1356195
0.1359194
0.1361956
0.1364373
0.136633
0.1367707
0.1368411
0.135639
0.1355705
0.1354437
0.135273
0.1350706
0.1348462
0.1346074
0.1343618
0.1341175
0.133884
0.1336723
0.1334938
0.1333598
0.1332805
0.1332633
0.1333123
0.1334275
0.1336048
0.1338368
0.1341134
0.1344226
0.1347521
0.1350898
0.1354246
0.1357459
0.1360443
0.1363094
0.1365293
0.1366897
0.1367751
0.1355255
0.1354346
0.1352711
0.135058
0.1348121
0.1345443
0.1342621
0.1339731
0.1336856
0.13341
0.1331586
0.1329447
0.1327816
0.1326812
0.1326527
0.1327007
0.1328253
0.1330218
0.1332811
0.1335913
0.1339386
0.1343088
0.1346884
0.1350653
0.1354291
0.1357703
0.1360785
0.1363409
0.1365384
0.1366464
0.135365
0.1352501
0.1350443
0.134779
0.1344759
0.1341479
0.1338035
0.1334504
0.1330979
0.132758
0.1324455
0.1321766
0.1319681
0.1318349
0.1317886
0.1318353
0.131975
0.1322016
0.1325038
0.1328666
0.1332729
0.1337054
0.1341482