/*--------------------------------*- C++ -*----------------------------------*\
| =========                 |                                                 |
| \\      /  F ield         | OpenFOAM: The Open Source CFD Toolbox           |
|  \\    /   O peration     | Version:  2506                                  |
|   \\  /    A nd           | Website:  www.openfoam.com                      |
|    \\/     M anipulation  |                                                 |
\*---------------------------------------------------------------------------*/
FoamFile
{
    version     2.0;
    format      ascii;
    arch        "LSB;label=32;scalar=64";
    class       volScalarField;
    location    "3000/air";
    object      nut;
}
// * * * * * * * * * * * * * * * * * * * * * * * * * * * * * * * * * * * * * //

dimensions      [0 2 -1 0 0 0 0];

internalField   nonuniform List<scalar> 
33752
(
0.008230072
0.008195603
0.008164994
0.008141409
0.008122351
0.008106291
0.008092362
0.008080044
0.008069083
0.008059424
0.008051159
0.008044482
0.008039639
0.008036874
0.008036408
0.008038354
0.008042698
0.008049337
0.008058075
0.008068658
0.008080823
0.008094345
0.008109091
0.008125065
0.008142467
0.008161764
0.008183786
0.008210062
0.008243176
0.008279862
0.008195217
0.008141321
0.008099618
0.008070376
0.008048359
0.008030683
0.008015758
0.008002702
0.007991091
0.007980803
0.007971919
0.007964652
0.007959281
0.007956095
0.007955365
0.007957211
0.007961603
0.00796842
0.007977439
0.007988371
0.00800092
0.008014848
0.008030036
0.008046563
0.00806481
0.008085625
0.008110585
0.008142617
0.008187091
0.008243623
0.008164145
0.008099122
0.008047351
0.0080112
0.007984623
0.007963825
0.00794657
0.007931584
0.007918236
0.007906317
0.007895902
0.007887248
0.007880705
0.007876642
0.007875397
0.007877121
0.007881786
0.007889238
0.007899191
0.007911284
0.007925153
0.007940519
0.007957273
0.007975588
0.007996058
0.008019937
0.008049464
0.008088484
0.008143185
0.008211043
0.008139927
0.00806924
0.008010555
0.007968453
0.007937098
0.007912453
0.007891951
0.007874052
0.007857966
0.00784343
0.007830548
0.007819666
0.007811254
0.007805822
0.007803806
0.007805413
0.007810624
0.007819229
0.007830841
0.007844973
0.007861142
0.00787898
0.007898356
0.007919495
0.007943155
0.007970856
0.008005165
0.008050172
0.008111861
0.008185477
0.00812006
0.00804644
0.007983203
0.007936319
0.00790038
0.007871475
0.007846978
0.007825235
0.007805383
0.007787159
0.007770748
0.007756652
0.007745538
0.007738132
0.007735032
0.00773652
0.007742598
0.007752969
0.007767086
0.007784264
0.007803825
0.007825248
0.007848314
0.007873246
0.00790087
0.007932811
0.007971691
0.008021482
0.008087755
0.008164343
0.008103037
0.008027849
0.00796152
0.007910796
0.007870593
0.007837209
0.007808103
0.007781642
0.007756976
0.007733915
0.007712795
0.007694349
0.007679561
0.007669473
0.00766488
0.007666239
0.007673561
0.007686419
0.007704025
0.007725394
0.007749554
0.00777574
0.007803574
0.007833198
0.007865406
0.007901802
0.007944924
0.007998548
0.008067926
0.008146094
0.008088011
0.008011895
0.007943288
0.007889339
0.007845145
0.007807151
0.007772927
0.007740921
0.007710385
0.007681272
0.007654144
0.007630071
0.007610524
0.007596874
0.007590306
0.007591506
0.007600511
0.007616698
0.007638925
0.007665774
0.007695852
0.007728047
0.007761731
0.007796881
0.007834187
0.007875171
0.007922268
0.007979113
0.008050779
0.008129874
0.008074484
0.007997713
0.007927245
0.007870425
0.007822408
0.0077797
0.007739931
0.007701632
0.007664198
0.007627805
0.007593304
0.007562348
0.007536807
0.007518608
0.007509469
0.007510439
0.007521609
0.007542069
0.007570163
0.007603878
0.007641257
0.007680726
0.007721305
0.007762737
0.007805575
0.007851263
0.007902184
0.007961909
0.008035447
0.008115196
0.008062213
0.007984889
0.007912771
0.007853276
0.007801534
0.007754036
0.007708404
0.007663206
0.007617995
0.007573213
0.00753026
0.007491133
0.007458215
0.007434301
0.007421868
0.007422509
0.007436459
0.007462245
0.007497451
0.007539494
0.007585445
0.007633326
0.007681707
0.007730039
0.007778743
0.007829235
0.007883902
0.007946327
0.008021537
0.008101843
0.008051148
0.007973306
0.007899662
0.007837633
0.007782268
0.007729981
0.007678329
0.007625873
0.007572319
0.007518342
0.007466282
0.007418176
0.007376988
0.007346557
0.00733041
0.007330849
0.007348134
0.007380065
0.00742319
0.007473712
0.007529185
0.007586348
0.007643156
0.007698781
0.007753537
0.007808856
0.007867189
0.007932189
0.008008962
0.008089802
0.008041371
0.007963043
0.007887989
0.007823594
0.00776479
0.007707873
0.007650288
0.007590549
0.007528399
0.007465536
0.007403736
0.007344852
0.007293479
0.007256494
0.007238589
0.007238826
0.007257465
0.007295529
0.007348612
0.007409733
0.007474582
0.007541103
0.007606594
0.007669588
0.007730339
0.00779035
0.007852184
0.007919607
0.007997842
0.008079211
0.008033038
0.007954303
0.007878002
0.007811496
0.007749587
0.007688434
0.007625339
0.007558735
0.007488556
0.007416982
0.007344368
0.007273958
0.007219433
0.007180301
0.007159247
0.007159242
0.007180642
0.007220602
0.007276378
0.007348978
0.00742428
0.007499959
0.007573586
0.007643585
0.007709935
0.007774259
0.00783927
0.007908879
0.007988436
0.008070319
0.008026558
0.007947388
0.007870044
0.007801795
0.007737311
0.007672605
0.007604835
0.007532412
0.00745515
0.007375386
0.007292776
0.007219194
0.007159183
0.00711422
0.0070897
0.007089438
0.007113908
0.007159441
0.007220677
0.007296055
0.007381366
0.007465174
0.007546248
0.007622215
0.007693338
0.007761296
0.007828964
0.007900417
0.007981093
0.008063456
0.00802192
0.007942522
0.00786445
0.00779496
0.007728625
0.007661351
0.007590169
0.007513372
0.00743082
0.007344623
0.007255557
0.007179973
0.007114217
0.007064437
0.007037048
0.007036547
0.007063535
0.007113691
0.007180599
0.007258003
0.007349587
0.007439696
0.0075265
0.007606953
0.007681576
0.007752179
0.00782178
0.007894548
0.007976032
0.008058768
0.008019504
0.007939958
0.007861504
0.007791369
0.007724071
0.007655452
0.007582476
0.00750325
0.007417914
0.007328097
0.007237435
0.007158887
0.007089843
0.007037317
0.007008232
0.007007564
0.007036029
0.007088837
0.007159004
0.007239348
0.007332487
0.007426083
0.007516056
0.007598954
0.007675431
0.007747424
0.007818034
0.007891491
0.007973405
0.008056356
0.008019394
0.007939855
0.007861406
0.007791275
0.00772398
0.007655366
0.007582395
0.007503176
0.007417846
0.007328034
0.007237366
0.007158818
0.007089772
0.007037241
0.007008151
0.007007481
0.007035948
0.007088761
0.007158933
0.007239282
0.007332432
0.007426029
0.007516001
0.007598903
0.007675387
0.007747391
0.007818012
0.007891481
0.007973408
0.008056377
0.008021583
0.007942213
0.007864157
0.00779468
0.007728355
0.007661091
0.007589924
0.007513147
0.007430611
0.00734443
0.007255349
0.007179764
0.007114005
0.007064214
0.007036812
0.007036305
0.007063296
0.007113463
0.007180385
0.007257805
0.007349418
0.007439527
0.007526331
0.007606802
0.007681454
0.00775209
0.007821727
0.007894531
0.007976055
0.008058846
0.008025955
0.00794687
0.007869558
0.00780133
0.007736861
0.007672171
0.00760442
0.007532025
0.007454793
0.007375053
0.00729245
0.007218845
0.007158831
0.007113858
0.007089324
0.007089054
0.007113527
0.007159071
0.007220324
0.007295746
0.007381068
0.007464874
0.007545957
0.007621964
0.00769315
0.00776117
0.007828913
0.007900427
0.007981166
0.008063625
0.008032349
0.007953619
0.007877335
0.007810848
0.007748958
0.007687823
0.007624751
0.007558178
0.007488036
0.007416491
0.007343897
0.00727351
0.00721894
0.0071798
0.007158737
0.007158724
0.007180123
0.007220093
0.00727593
0.007348535
0.007423831
0.007499506
0.007573151
0.007643212
0.007709646
0.007774051
0.007839153
0.007908836
0.007988466
0.00807045
0.008040491
0.007962174
0.00788714
0.007822768
0.007763984
0.007707086
0.007649523
0.007589812
0.007527702
0.007464875
0.007403113
0.007344265
0.007292896
0.007255851
0.007237938
0.007238167
0.007256804
0.007294921
0.007348012
0.00740912
0.007473955
0.007540477
0.007606009
0.007669077
0.007729918
0.007790018
0.007851936
0.007919435
0.007997741
0.008079182
0.008050078
0.007972253
0.007898634
0.007836631
0.00778129
0.007729024
0.007677389
0.007624954
0.00757143
0.007517491
0.00746547
0.007417399
0.007376239
0.007345815
0.007329663
0.007330093
0.007347368
0.007379285
0.007422389
0.007472899
0.007528356
0.007585552
0.007642428
0.007698149
0.007753009
0.007808429
0.007866854
0.007931934
0.008008774
0.008089668
0.008060961
0.007983657
0.007911569
0.007852105
0.007800393
0.007752917
0.0077073
0.007662114
0.007616918
0.00757216
0.007529233
0.007490134
0.00745724
0.007433337
0.007420903
0.007421533
0.007435463
0.007461223
0.007496406
0.007538438
0.007584423
0.007632373
0.007680854
0.007729306
0.007778135
0.007828743
0.007883514
0.007946025
0.008021302
0.008101653
0.008073059
0.007996309
0.007925875
0.007869092
0.007821111
0.00777843
0.007738676
0.007700383
0.00766295
0.00762656
0.007592069
0.007561121
0.007535589
0.00751739
0.007508244
0.007509197
0.007520347
0.007540791
0.007568883
0.007602623
0.00764007
0.007679641
0.007720351
0.007761926
0.007804907
0.00785073
0.007901769
0.00796159
0.008035195
0.008114985
0.008086425
0.00801033
0.007941759
0.007887853
0.007843701
0.007805741
0.007771536
0.007739535
0.007708993
0.007679867
0.007652727
0.007628643
0.007609083
0.007595418
0.007588832
0.007590015
0.007599006
0.007615195
0.007637448
0.007664357
0.007694532
0.007726859
0.007760696
0.007796009
0.007833478
0.007874615
0.007921849
0.007978805
0.008050549
0.008129685
0.008101304
0.008026136
0.007959845
0.007909167
0.007869012
0.007835669
0.00780659
0.007780137
0.007755465
0.007732385
0.007711238
0.007692764
0.007677946
0.007667828
0.00766321
0.007664551
0.00767187
0.007684746
0.007702401
0.007723855
0.007748135
0.007774472
0.007802476
0.00783228
0.007864669
0.007901238
0.007944515
0.007998267
0.008067734
0.008145946
0.008118199
0.008044597
0.007981397
0.007934561
0.007898674
0.007869815
0.007845352
0.007823626
0.007803772
0.007785529
0.007769088
0.007754954
0.0077438
0.007736357
0.007733225
0.007734696
0.007740777
0.007751178
0.007765359
0.007782636
0.007802331
0.007823916
0.007847165
0.007872293
0.007900116
0.007932249
0.007971304
0.008021237
0.008087609
0.008164244
0.00813796
0.00806729
0.008008639
0.007966584
0.007935282
0.007910687
0.007890225
0.00787235
0.007856268
0.007841719
0.007828808
0.007817886
0.007809431
0.007803957
0.007801908
0.007803498
0.007808715
0.007817356
0.007829038
0.007843277
0.007859587
0.007877597
0.007897167
0.007918516
0.007942392
0.007970302
0.008004802
0.008049965
0.008111762
0.008185427
0.0081621
0.00809709
0.00804535
0.008009244
0.007982719
0.007961972
0.007944759
0.007929801
0.007916463
0.007904535
0.007894095
0.007885404
0.007878818
0.007874714
0.007873435
0.007875143
0.007879816
0.007887307
0.007897333
0.007909536
0.007923551
0.007939094
0.007956053
0.00797459
0.00799529
0.008019393
0.008049124
0.008088311
0.008143127
0.008211038
0.008193126
0.00813924
0.008097564
0.008068362
0.008046395
0.008028767
0.008013883
0.008000855
0.007989256
0.007978962
0.007970057
0.007962756
0.007957346
0.00795412
0.007953358
0.00795519
0.007959591
0.007966449
0.007975542
0.007986586
0.007999285
0.008013396
0.008028795
0.008045553
0.008064039
0.008085087
0.008110258
0.008142465
0.008187059
0.008243647
0.008227963
0.008193501
0.008162915
0.008139368
0.008120355
0.00810434
0.008090449
0.008078158
0.008067209
0.008057545
0.008049262
0.008042555
0.008037675
0.008034874
0.008034381
0.008036314
0.008040669
0.008047349
0.008056162
0.008066858
0.008079173
0.008092879
0.008107838
0.008124046
0.008141689
0.008161221
0.008183458
0.00820991
0.008243148
0.008279894
0.07728329
0.07740425
0.07743231
0.0773918
0.07731526
0.0772202
0.07711583
0.07700766
0.07689993
0.07679685
0.07670303
0.07662342
0.07656291
0.07652589
0.07651558
0.07653384
0.07658077
0.07665466
0.07675226
0.0768692
0.07700045
0.07714073
0.07728495
0.07742817
0.07756521
0.07768949
0.07779047
0.0778491
0.0778309
0.0777099
0.07740338
0.07757484
0.07762755
0.07759301
0.07751301
0.07740989
0.07729525
0.07717573
0.07705624
0.0769415
0.07683667
0.07674727
0.07667881
0.07663615
0.0766229
0.07664117
0.07669111
0.07677079
0.07687655
0.07700349
0.07714595
0.07729808
0.07745423
0.0776089
0.07775629
0.07788862
0.077993
0.07804561
0.07800281
0.07783135
0.07742827
0.07762455
0.07769236
0.07765921
0.07757068
0.07745263
0.07731903
0.07717803
0.07703566
0.07689774
0.07677061
0.07666108
0.07657599
0.07652137
0.07650174
0.07651973
0.07657549
0.07666661
0.07678852
0.07693512
0.07709946
0.07727438
0.07745299
0.07762874
0.07779468
0.07794158
0.07805429
0.07810559
0.07804809
0.07785217
0.07738269
0.07758512
0.0776545
0.07761483
0.07751183
0.07737235
0.07721166
0.0770393
0.07686277
0.07668956
0.07652798
0.07638703
0.07627576
0.07620216
0.07617235
0.07618984
0.0762547
0.07636369
0.07651076
0.07668781
0.07688567
0.07709499
0.07730694
0.07751327
0.07770561
0.07787343
0.07800038
0.07805836
0.07799975
0.07779794
0.07729946
0.07749857
0.07755969
0.07750576
0.0773817
0.0772138
0.07701755
0.07680349
0.07658071
0.07635895
0.07614935
0.07596417
0.07581576
0.07571513
0.07567081
0.07568759
0.07576544
0.07589988
0.07608261
0.07630253
0.07654712
0.0768038
0.07706092
0.07730801
0.07753515
0.07773091
0.07787878
0.07795121
0.07790118
0.07770287
0.07719633
0.07738744
0.07743393
0.07735889
0.07720664
0.07700242
0.07676129
0.07649423
0.07621192
0.07592678
0.07565371
0.07540949
0.07521112
0.07507397
0.07501015
0.07502606
0.07512159
0.07529052
0.07552129
0.07579853
0.07610502
0.0764237
0.07673917
0.07703834
0.07730974
0.07754151
0.07771755
0.07781126
0.0777761
0.07758587
0.07708271
0.07726358
0.07729138
0.07718966
0.07700225
0.0767534
0.07645741
0.07612532
0.07576914
0.07540432
0.07505045
0.0747302
0.07446686
0.07428231
0.07419323
0.0742082
0.07432703
0.07454107
0.0748343
0.07518547
0.07557095
0.07596779
0.07635599
0.07671947
0.07704537
0.07732168
0.07753295
0.0776535
0.07763719
0.0774573
0.07696429
0.0771338
0.0771404
0.07700778
0.0767792
0.07647786
0.07611715
0.07570789
0.07526315
0.07480144
0.07434783
0.07393212
0.07358687
0.0733424
0.07322133
0.07323546
0.07338441
0.07365608
0.07402836
0.07447201
0.07495513
0.07544727
0.07592305
0.07636328
0.07675384
0.07708275
0.07733537
0.07748701
0.07749208
0.07732363
0.07684543
0.07700316
0.07698717
0.07682088
0.0765467
0.07618653
0.07575261
0.0752552
0.07470801
0.07413234
0.07355859
0.07302643
0.07258032
0.07226056
0.07209826
0.07211154
0.07229972
0.07264469
0.07311564
0.07367214
0.07427242
0.07487685
0.07545429
0.07598254
0.07644652
0.07683455
0.07713306
0.07731861
0.07734646
0.07718992
0.07673042
0.07687646
0.07683757
0.07663655
0.07631456
0.07589187
0.07537919
0.07478569
0.07412497
0.07342037
0.07270671
0.07203543
0.07146235
0.07103953
0.07081274
0.07082361
0.07107221
0.07151819
0.07211531
0.07281063
0.07354725
0.07427875
0.07496897
0.07559337
0.07613649
0.07658748
0.07693418
0.07715477
0.07720575
0.07706102
0.07662389
0.07675882
0.07669793
0.07646307
0.07609387
0.0756087
0.0750163
0.07432418
0.07354485
0.07270013
0.07183261
0.07100012
0.07024877
0.06964147
0.06925215
0.06925818
0.06966261
0.07029255
0.0710677
0.0719248
0.07281551
0.07368454
0.07449275
0.07521591
0.07583922
0.0763532
0.07674757
0.07700236
0.07707559
0.07694202
0.07653077
0.07665569
0.07657497
0.07630931
0.07589675
0.07535362
0.07468646
0.07390054
0.07300586
0.07202188
0.07099331
0.06994215
0.06879067
0.06793278
0.06746918
0.06747088
0.06794144
0.06881475
0.06999495
0.07107312
0.0721268
0.07313306
0.0740563
0.07487335
0.0755719
0.07614441
0.07658262
0.07686856
0.07696181
0.07683813
0.07645528
0.07657231
0.07647532
0.07618413
0.07573536
0.07514347
0.07441291
0.07354635
0.07255127
0.0714409
0.07023677
0.06878715
0.06744666
0.06644519
0.06590997
0.06590787
0.06644333
0.06745425
0.06881661
0.07030287
0.07153597
0.07266924
0.07369184
0.07458954
0.07535194
0.07597373
0.07644859
0.0767603
0.07686998
0.07675422
0.07640241
0.07651356
0.07640491
0.07609541
0.07562056
0.07499341
0.07421677
0.07329132
0.07222132
0.07100993
0.06962754
0.06792816
0.06644521
0.06534628
0.06475938
0.06475462
0.06533681
0.06644102
0.06794235
0.06967448
0.07109681
0.07233315
0.0734296
0.07438615
0.07519498
0.07585244
0.07635368
0.07668394
0.07680534
0.07669513
0.07637472
0.07648289
0.07636818
0.0760491
0.07556057
0.07491489
0.07411399
0.07315774
0.07204663
0.07077352
0.06923367
0.06746343
0.06591143
0.06476213
0.06414816
0.06414208
0.06474873
0.06590109
0.06746999
0.06927153
0.07085627
0.07215579
0.07329215
0.07427968
0.07511301
0.07578927
0.07630442
0.07664442
0.07677194
0.07666457
0.07637391
0.07648207
0.07636735
0.07604827
0.07555975
0.07491408
0.07411319
0.07315695
0.07204587
0.0707728
0.06923303
0.06746275
0.06591066
0.06476124
0.06414718
0.06414106
0.06474775
0.06590021
0.0674692
0.06927082
0.07085547
0.072155
0.07329142
0.07427902
0.07511242
0.07578874
0.07630394
0.07664398
0.07677151
0.0766641
0.07640006
0.07651111
0.07640243
0.07609293
0.0756181
0.07499097
0.07421436
0.07328896
0.07221902
0.07100772
0.06962555
0.06792608
0.06644294
0.06534373
0.06475658
0.06475172
0.06533401
0.06643845
0.06794
0.06967228
0.07109439
0.07233079
0.0734274
0.07438412
0.07519313
0.07585077
0.07635217
0.07668254
0.07680396
0.07669362
0.07645153
0.07656827
0.07647121
0.07618
0.07573124
0.07513938
0.07440885
0.07354236
0.07254735
0.07143708
0.07023305
0.06878357
0.06744296
0.06644119
0.06590568
0.06590344
0.06643902
0.06745015
0.06881264
0.07029869
0.0715318
0.07266525
0.07368812
0.07458608
0.07534873
0.07597079
0.07644585
0.07675774
0.07686746
0.07675147
0.07652508
0.07664997
0.07656922
0.07630353
0.07589096
0.07534783
0.0746807
0.07389482
0.07300021
0.07201632
0.07098785
0.06993672
0.06878543
0.06792743
0.06746358
0.06746514
0.06793572
0.06880902
0.06998888
0.07106701
0.07212083
0.07312738
0.074051
0.07486843
0.07556736
0.07614028
0.07657882
0.07686505
0.07695841
0.07683454
0.07661667
0.07675155
0.0766906
0.07645567
0.07608642
0.0756012
0.07500877
0.07431663
0.07353732
0.07269264
0.07182515
0.07099262
0.07024129
0.06963455
0.06924509
0.06925098
0.06965528
0.07028442
0.07105945
0.07191664
0.07280762
0.07367707
0.07448578
0.07520951
0.07583341
0.07634799
0.0767429
0.07699811
0.07707157
0.07693798
0.07672179
0.07686773
0.07682873
0.07662759
0.07630546
0.07588265
0.07536985
0.07477625
0.07411545
0.07341079
0.07269708
0.07202568
0.07145249
0.07102956
0.07080259
0.07081327
0.07106174
0.07150759
0.07210476
0.07280031
0.07353732
0.07426935
0.07496024
0.07558539
0.0761293
0.07658107
0.07692848
0.07714963
0.07720097
0.07705634
0.0768355
0.07699309
0.07697691
0.07681043
0.07653603
0.07617563
0.07574147
0.07524384
0.07469643
0.07412057
0.07354665
0.0730143
0.07256797
0.07224798
0.07208545
0.07209853
0.0722866
0.07263158
0.0731027
0.07365953
0.07426033
0.07486546
0.07544375
0.07597294
0.0764379
0.07682691
0.07712628
0.07731253
0.07734086
0.07718451
0.07695322
0.07712254
0.07712888
0.07699596
0.07676706
0.07646536
0.07610428
0.07569465
0.07524953
0.07478747
0.07433353
0.07391749
0.07357193
0.07332716
0.07320582
0.07321977
0.07336864
0.07364038
0.07401292
0.07445704
0.07494084
0.07543387
0.0759107
0.07635208
0.07674383
0.07707389
0.07732755
0.07748003
0.07748569
0.0773175
0.0770707
0.07725131
0.07727876
0.07717663
0.07698878
0.07673944
0.07644293
0.07611031
0.07575359
0.07538825
0.07503388
0.07471314
0.07444938
0.07426444
0.07417505
0.07418982
0.07430861
0.07452279
0.0748164
0.07516818
0.07555452
0.07595245
0.0763419
0.07670675
0.07703405
0.07731169
0.07752415
0.07764568
0.07763004
0.07745046
0.0771836
0.07737439
0.07742042
0.07734485
0.07719201
0.07698717
0.07674537
0.07647762
0.0761946
0.07590877
0.07563504
0.07539019
0.07519126
0.07505363
0.07498945
0.07500515
0.07510067
0.07526981
0.07550106
0.07577907
0.07608659
0.07640654
0.07672347
0.0770242
0.0772972
0.07753048
0.07770788
0.07780269
0.07776828
0.0775784
0.07728624
0.07748495
0.0775455
0.07749091
0.07736614
0.07719746
0.07700039
0.07678548
0.07656185
0.07633925
0.07612884
0.07594289
0.07579381
0.07569261
0.07564788
0.07566443
0.07574229
0.07587701
0.07606032
0.07628112
0.07652689
0.07678502
0.07704377
0.07729261
0.07752152
0.07771898
0.07786835
0.077942
0.07789281
0.07769487
0.0773692
0.07757117
0.07763988
0.07759942
0.07749556
0.07735516
0.0771935
0.07702015
0.07684263
0.07666844
0.07650592
0.0763641
0.07625206
0.07617782
0.07614756
0.07616481
0.07622969
0.07633901
0.07648673
0.07666477
0.07686392
0.07707482
0.07728854
0.07749677
0.07769105
0.07786071
0.0779893
0.07804861
0.07799089
0.07778949
0.07741472
0.07761049
0.07767754
0.07764348
0.07755395
0.07743485
0.07730014
0.07715803
0.07701454
0.07687553
0.07674735
0.07663687
0.07655094
0.07649563
0.0764755
0.07649324
0.07654904
0.07664051
0.07676312
0.07691078
0.0770765
0.07725308
0.07743358
0.07761136
0.07777935
0.07792821
0.07804267
0.07809538
0.07803884
0.07784335
0.07738995
0.07756085
0.07761273
0.0775772
0.07749609
0.07739179
0.07727593
0.07715518
0.07703447
0.07691855
0.07681261
0.07672219
0.07665283
0.07660945
0.07659568
0.07661368
0.07666366
0.07674371
0.0768502
0.07697822
0.07712211
0.07727598
0.07743408
0.07759086
0.07774037
0.07787474
0.07798095
0.07803503
0.07799322
0.07782222
0.07727001
0.07739042
0.0774176
0.07737604
0.07729832
0.077202
0.07709634
0.07698687
0.07687786
0.07677355
0.07667858
0.0765979
0.07653647
0.07649869
0.07648785
0.07650583
0.07655279
0.07662705
0.07672539
0.07684343
0.07697612
0.07711816
0.07726436
0.07740971
0.07754892
0.07767527
0.07777811
0.07783824
0.07782107
0.07770056
0.1657414
0.1658229
0.1658186
0.1657177
0.1655456
0.1653247
0.1650712
0.1647976
0.1645156
0.1642382
0.16398
0.1637567
0.1635838
0.163475
0.1634408
0.1634871
0.1636142
0.1638169
0.1640854
0.164406
0.1647631
0.1651403
0.1655216
0.1658921
0.1662376
0.1665425
0.1667872
0.1669454
0.1669881
0.1669237
0.1658162
0.1659513
0.165983
0.1658918
0.1657101
0.1654673
0.1651841
0.164876
0.1645569
0.1642419
0.1639475
0.1636917
0.163492
0.1633641
0.1633199
0.163366
0.1635027
0.1637242
0.1640192
0.1643723
0.1647655
0.1651803
0.1655988
0.1660039
0.1663792
0.1667061
0.1669602
0.1671081
0.1671138
0.1669941
0.1658001
0.1659711
0.1660276
0.1659349
0.1657275
0.1654407
0.1651002
0.1647256
0.1643346
0.1639458
0.1635801
0.1632596
0.1630064
0.16284
0.1627753
0.1628205
0.1629759
0.1632343
0.1635813
0.1639976
0.1644612
0.1649488
0.1654384
0.1659093
0.1663412
0.1667113
0.1669903
0.1671389
0.1671186
0.1669617
0.1656835
0.1658641
0.165919
0.1658027
0.1655482
0.1651934
0.1647675
0.1642941
0.1637952
0.163295
0.1628205
0.1624009
0.1620653
0.1618394
0.1617428
0.1617864
0.1619704
0.1622851
0.1627116
0.1632244
0.1637944
0.1643914
0.1649871
0.1655552
0.1660711
0.1665079
0.1668329
0.1670041
0.1669843
0.1668171
0.1654921
0.165663
0.1656924
0.1655291
0.1652043
0.1647558
0.1642148
0.1636083
0.1629632
0.1623106
0.1616862
0.1611291
0.1606785
0.1603693
0.1602281
0.1602694
0.1604935
0.1608868
0.161424
0.1620705
0.162787
0.1635335
0.1642729
0.164972
0.1656011
0.1661301
0.1665243
0.1667416
0.1667468
0.1665888
0.1652493
0.1653981
0.1653836
0.1651526
0.1647344
0.1641658
0.1634788
0.1627029
0.1618704
0.1610206
0.1602006
0.1594628
0.1588604
0.1584408
0.1582405
0.1582789
0.1585562
0.159054
0.1597375
0.1605599
0.1614678
0.162408
0.163332
0.1641982
0.1649716
0.1656193
0.1661059
0.1663902
0.1664389
0.1663027
0.1649714
0.1650906
0.165019
0.1647031
0.1641704
0.1634561
0.162592
0.1616095
0.1605464
0.1594518
0.1583864
0.1574202
0.1566246
0.1560643
0.1557886
0.1558235
0.1561693
0.1568008
0.1576708
0.1587159
0.1598644
0.1610459
0.1621976
0.1632684
0.1642174
0.1650098
0.1656103
0.1659791
0.1660847
0.1659783
0.1646715
0.1647562
0.1646186
0.1642046
0.1635395
0.1626568
0.1615867
0.160362
0.159026
0.157638
0.1562757
0.1550301
0.1539968
0.1532625
0.1528933
0.1529244
0.1533557
0.1541534
0.1552537
0.1565715
0.1580119
0.1594829
0.1609052
0.1622166
0.1633708
0.1643313
0.1650638
0.1655308
0.1657025
0.1656308
0.1643615
0.1644093
0.1642003
0.1636794
0.1628694
0.1618006
0.1605012
0.1590044
0.1573578
0.1556322
0.1539232
0.1523477
0.1510299
0.1500846
0.149601
0.1496275
0.1501644
0.1511645
0.1525417
0.1541828
0.1559645
0.1577697
0.1595004
0.1610833
0.1624667
0.1636134
0.1644911
0.1650653
0.1653088
0.1652744
0.1640546
0.1640649
0.1637828
0.1631517
0.162191
0.1609271
0.1593847
0.1575963
0.1556131
0.1535158
0.151419
0.1494665
0.1478136
0.1466115
0.1459833
0.1460038
0.1466743
0.1479224
0.1496275
0.1516405
0.1538055
0.1559792
0.1580453
0.1599196
0.1615464
0.162889
0.1639181
0.1646032
0.1649204
0.1649239
0.163765
0.1637393
0.1633867
0.1626483
0.1615399
0.1600828
0.1582979
0.1562152
0.1538877
0.1514035
0.1488942
0.1465233
0.1444696
0.1429368
0.1421117
0.1421246
0.1429788
0.1445488
0.1466484
0.1490759
0.1516512
0.1542096
0.1566193
0.1587884
0.1606588
0.1621957
0.1633737
0.164167
0.1645555
0.1645954
0.1635081
0.1634501
0.1630338
0.1621981
0.1609545
0.1593197
0.1573097
0.1549513
0.152297
0.1494381
0.1465124
0.1436735
0.1410983
0.1391145
0.1380689
0.1380732
0.1391322
0.1411428
0.1437615
0.1466547
0.1496465
0.1525788
0.1553154
0.157761
0.1598578
0.1615739
0.1628883
0.1637799
0.1642329
0.1643055
0.1632987
0.1632143
0.1627455
0.1618292
0.1604734
0.15869
0.1564908
0.1538987
0.1509638
0.1477742
0.1444511
0.141092
0.1380245
0.1357633
0.1345634
0.13456
0.1357596
0.138037
0.1411419
0.1445572
0.147948
0.1512124
0.15423
0.1569102
0.1591976
0.1610636
0.1624916
0.1634648
0.1639708
0.1640701
0.1631502
0.1630469
0.1625406
0.1615668
0.1601303
0.1582401
0.1559041
0.1531422
0.1500007
0.1465594
0.1429105
0.1391052
0.1357635
0.1332992
0.1319891
0.13198
0.1332793
0.1357522
0.1391266
0.142988
0.1467073
0.1502255
0.1534502
0.1563011
0.1587263
0.1607004
0.1622099
0.1632415
0.1637854
0.1639037
0.1630722
0.162959
0.1624333
0.1614293
0.1599507
0.1580045
0.1555969
0.1527456
0.1494939
0.1459138
0.1420747
0.1380572
0.1345664
0.1319948
0.1306266
0.1306144
0.1319663
0.1345423
0.1380635
0.1421372
0.146048
0.1497064
0.1530415
0.1559823
0.15848
0.1605107
0.162063
0.1631251
0.1636888
0.1638169
0.1630698
0.1629566
0.1624308
0.1614269
0.1599483
0.1580021
0.1555945
0.1527432
0.1494915
0.1459115
0.1420725
0.1380549
0.1345641
0.1319924
0.1306241
0.1306119
0.1319638
0.1345398
0.1380611
0.1421347
0.1460455
0.1497039
0.1530391
0.1559801
0.1584779
0.1605088
0.1620612
0.1631234
0.1636872
0.1638153
0.1631431
0.1630397
0.1625334
0.1615594
0.160123
0.1582327
0.1558968
0.1531349
0.1499935
0.1465523
0.1429036
0.1390984
0.1357566
0.1332921
0.1319817
0.1319724
0.1332718
0.1357448
0.1391192
0.1429804
0.1466997
0.150218
0.153443
0.1562943
0.1587201
0.1606946
0.1622045
0.1632364
0.1637805
0.1638987
0.163287
0.1632024
0.1627334
0.1618171
0.1604611
0.1586777
0.1564785
0.1538864
0.1509516
0.1477621
0.1444391
0.1410803
0.1380127
0.1357512
0.134551
0.1345474
0.1357469
0.1380244
0.1411292
0.1445442
0.147935
0.1511997
0.1542179
0.1568988
0.159187
0.1610538
0.1624824
0.1634561
0.1639624
0.1640617
0.1634917
0.1634336
0.163017
0.1621811
0.1609374
0.1593024
0.1572923
0.1549338
0.1522794
0.1494206
0.1464948
0.143656
0.1410809
0.1390969
0.138051
0.138055
0.1391138
0.1411243
0.1437425
0.1466356
0.1496276
0.1525605
0.1552981
0.1577447
0.1598427
0.1615599
0.1628753
0.1637678
0.1642212
0.1642938
0.1637442
0.1637184
0.1633654
0.1626267
0.1615179
0.1600604
0.1582751
0.1561921
0.1538644
0.15138
0.1488705
0.1464995
0.1444455
0.1429127
0.1420873
0.1420998
0.1429537
0.1445231
0.1466226
0.1490502
0.151626
0.1541854
0.1565964
0.158767
0.160639
0.1621775
0.163357
0.1641514
0.1645407
0.1645809
0.1640299
0.1640399
0.1637573
0.1631256
0.1621643
0.1608996
0.1593566
0.1575676
0.1555838
0.153486
0.1513886
0.1494357
0.1477822
0.1465797
0.1459509
0.145971
0.1466412
0.147889
0.1495943
0.1516078
0.1537736
0.1559487
0.1580165
0.1598928
0.1615217
0.1628664
0.1638975
0.1645841
0.1649024
0.1649064
0.1643334
0.1643808
0.164171
0.1636492
0.1628382
0.1617683
0.1604678
0.1589699
0.1573223
0.1555957
0.1538857
0.1523094
0.1509908
0.1500447
0.1495604
0.1495864
0.150123
0.151123
0.1525006
0.1541426
0.1559256
0.1577326
0.1594656
0.161051
0.162437
0.1635863
0.1644664
0.1650426
0.1652875
0.1652538
0.1646406
0.1647247
0.1645861
0.1641708
0.1635043
0.1626199
0.1615481
0.1603219
0.1589842
0.1575948
0.1562311
0.1549842
0.1539497
0.1532143
0.1528443
0.1528747
0.1533058
0.1541036
0.1552046
0.1565236
0.1579658
0.1594391
0.1608642
0.1621787
0.1633361
0.1642998
0.1650352
0.1655046
0.165678
0.1656072
0.1649384
0.1650568
0.1649839
0.1646663
0.1641315
0.1634151
0.1625487
0.161564
0.1604988
0.159402
0.1583347
0.1573667
0.1565696
0.156008
0.1557312
0.1557654
0.1561109
0.1567428
0.1576138
0.1586604
0.1598112
0.1609955
0.1621506
0.163225
0.1641779
0.164974
0.1655778
0.1659495
0.166057
0.1659517
0.1652149
0.1653628
0.1653465
0.1651133
0.1646925
0.1641212
0.1634313
0.1626525
0.1618172
0.1609648
0.1601423
0.1594023
0.1587978
0.1583766
0.158175
0.1582127
0.1584898
0.1589881
0.1596728
0.1604971
0.1614078
0.1623514
0.1632793
0.1641498
0.1649275
0.1655795
0.1660699
0.1663574
0.1664083
0.1662734
0.1654572
0.1656268
0.1656541
0.1654881
0.1651601
0.1647082
0.1641637
0.1635536
0.1629052
0.1622493
0.1616219
0.1610621
0.1606092
0.1602981
0.1601554
0.1601958
0.1604197
0.1608137
0.1613524
0.1620012
0.1627208
0.1634712
0.164215
0.1649189
0.1655529
0.1660867
0.1664851
0.1667059
0.1667136
0.166557
0.1656485
0.1658276
0.1658801
0.1657605
0.1655024
0.1651435
0.1647135
0.164236
0.1637331
0.1632292
0.1627512
0.1623285
0.1619901
0.161762
0.1616638
0.1617065
0.1618904
0.1622058
0.162634
0.1631494
0.1637229
0.1643242
0.1649248
0.1654982
0.1660194
0.1664614
0.166791
0.1669661
0.1669491
0.1667832
0.1657656
0.165935
0.1659886
0.1658922
0.1656806
0.1653892
0.1650441
0.1646649
0.1642694
0.1638765
0.1635068
0.1631829
0.1629267
0.1627579
0.1626915
0.1627356
0.162891
0.1631501
0.1634989
0.1639182
0.1643855
0.1648777
0.1653726
0.1658491
0.1662867
0.1666624
0.1669463
0.167099
0.1670815
0.1669262
0.1657823
0.1659156
0.1659442
0.1658491
0.1656628
0.165415
0.1651267
0.1648136
0.1644897
0.1641702
0.1638717
0.1636121
0.1634093
0.1632788
0.1632327
0.1632777
0.1634143
0.1636367
0.1639337
0.1642897
0.1646869
0.1651065
0.1655305
0.1659415
0.1663228
0.1666554
0.1669146