/*--------------------------------*- C++ -*----------------------------------*\
| =========                 |                                                 |
| \\      /  F ield         | OpenFOAM: The Open Source CFD Toolbox           |
|  \\    /   O peration     | Version:  2506                                  |
|   \\  /    A nd           | Website:  www.openfoam.com                      |
|    \\/     M anipulation  |                                                 |
\*---------------------------------------------------------------------------*/
FoamFile
{
    version     2.0;
    format      ascii;
    arch        "LSB;label=32;scalar=64";
    class       volScalarField;
    location    "3500/solid";
    object      T;
}
// * * * * * * * * * * * * * * * * * * * * * * * * * * * * * * * * * * * * * //

dimensions      [0 0 0 1 0 0 0];

internalField   nonuniform List<scalar> 
2304
(
305.7923
305.8477
305.8712
305.8758
305.8674
305.8347
305.8526
305.9099
305.9336
305.9382
305.9298
305.8968
305.8765
305.9341
305.958
305.9627
305.9543
305.9209
305.8812
305.9387
305.9628
305.9675
305.959
305.9256
305.8729
305.9305
305.9544
305.959
305.9506
305.9172
305.8406
305.8977
305.9212
305.9258
305.9175
305.8846
305.8499
305.8999
305.9043
305.9654
305.9111
305.9308
305.9767
305.9964
305.9343
305.939
305.9998
306.0044
305.939
305.9342
306.0044
305.9997
305.9306
305.9102
305.9962
305.9759
305.8983
305.843
305.9639
305.8972
305.9159
305.9772
305.9361
305.9973
305.9886
306.0083
306.0088
306.0286
306.0118
306.0163
306.0321
306.0367
306.0163
306.0116
306.0367
306.032
306.0081
305.9878
306.0285
306.008
305.9758
305.909
305.9959
305.9293
305.9397
306.0007
305.9444
306.0054
306.0122
306.0322
306.0169
306.0368
306.0356
306.0402
306.0403
306.0449
306.0402
306.0355
306.0449
306.0402
306.032
306.0115
306.0367
306.0162
305.9994
305.9328
306.0041
305.9376
305.9444
306.0054
305.9397
306.0007
306.0169
306.0368
306.0122
306.0321
306.0403
306.0449
306.0356
306.0402
306.0449
306.0402
306.0402
306.0355
306.0367
306.0162
306.032
306.0115
306.0041
305.9376
305.9994
305.9328
305.9361
305.9972
305.9159
305.9771
306.0087
306.0286
305.9885
306.0082
306.0321
306.0367
306.0117
306.0163
306.0367
306.032
306.0162
306.0116
306.0285
306.008
306.0081
305.9877
305.9959
305.9292
305.9757
305.9089
305.9042
305.9653
305.8498
305.8998
305.9766
305.9963
305.9111
305.9308
305.9997
306.0043
305.9343
305.939
306.0043
305.9996
305.9389
305.9341
305.9961
305.9758
305.9306
305.9101
305.9638
305.8971
305.8982
305.8429
305.8363
305.8407
305.8862
305.8676
305.8978
305.9177
305.8759
305.9213
305.9259
305.871
305.9259
305.9211
305.8468
305.9176
305.8969
305.785
305.8847
305.8332
305.8983
305.8729
305.9187
305.93
305.9305
305.9508
305.9382
305.9544
305.9591
305.9334
305.9591
305.9543
305.9091
305.9507
305.9297
305.8451
305.9173
305.8656
305.9222
305.8812
305.9269
305.9544
305.9387
305.9592
305.9627
305.9628
305.9675
305.9579
305.9675
305.9627
305.9333
305.959
305.938
305.8692
305.9256
305.874
305.9269
305.8765
305.9222
305.9592
305.934
305.9544
305.9675
305.958
305.9627
305.9627
305.9627
305.9579
305.938
305.9543
305.9333
305.874
305.9208
305.8692
305.9187
305.8525
305.8982
305.9508
305.9099
305.93
305.9591
305.9335
305.9381
305.9543
305.9381
305.9334
305.9297
305.9298
305.909
305.8656
305.8967
305.845
305.8861
305.7923
305.8363
305.9177
305.8477
305.8676
305.9258
305.8712
305.8758
305.9211
305.8758
305.871
305.8968
305.8674
305.8468
305.8331
305.8347
305.785
305.9292
305.8827
305.9028
305.9044
305.9855
305.9487
305.9573
305.9769
306.0026
305.9721
305.9745
306.0002
306.0041
305.9767
305.976
306.0048
305.9916
305.9683
305.9634
305.9965
305.9477
305.9357
305.9197
305.964
305.9879
305.9524
305.9791
305.9613
306.0459
306.0284
306.0371
306.0373
306.0629
306.0517
306.054
306.0605
306.0643
306.0562
306.0554
306.065
306.0521
306.048
306.0432
306.0569
306.0075
306.0155
305.9986
306.0243
306.0053
305.9763
306.0029
305.9788
306.0631
306.0521
306.0608
306.0545
306.0801
306.0754
306.0777
306.0777
306.0816
306.0799
306.0792
306.0823
306.0693
306.0718
306.0669
306.0742
306.0249
306.0392
306.0225
306.0416
306.0068
305.9811
306.0076
305.9803
306.0646
306.0567
306.0653
306.056
306.0816
306.08
306.0823
306.0792
306.083
306.0845
306.0838
306.0838
306.0708
306.0764
306.0715
306.0756
306.0264
306.0439
306.0271
306.0431
305.9945
305.9727
305.9993
305.9678
306.0525
306.0486
306.0573
306.0438
306.0694
306.0719
306.0742
306.067
306.0708
306.0764
306.0757
306.0716
306.0586
306.0683
306.0634
306.0634
306.014
306.0357
306.0189
306.0309
305.951
305.9405
305.9672
305.9247
306.0082
306.0163
306.0249
305.9996
306.0252
306.0395
306.0419
306.0229
306.0267
306.044
306.0433
306.0274
306.0143
306.0358
306.031
306.0192
305.9701
306.0033
305.9865
305.9867
305.8041
305.8062
305.8186
305.8563
305.8624
305.8709
305.8736
305.8857
305.8881
305.8751
305.8903
305.8896
305.8625
305.882
305.877
305.8188
305.8494
305.8334
305.8651
305.8614
305.8739
305.9186
305.9189
305.9276
305.936
305.9426
305.9451
305.9374
305.9473
305.9465
305.9249
305.9389
305.934
305.8804
305.9057
305.8893
305.8889
305.879
305.8914
305.9429
305.9365
305.9453
305.9605
305.9605
305.9629
305.962
305.9652
305.9645
305.9493
305.9568
305.9518
305.9044
305.9233
305.9069
305.8936
305.8805
305.8929
305.9476
305.938
305.9468
305.9652
305.962
305.9645
305.9668
305.9668
305.966
305.954
305.9583
305.9533
305.9091
305.9248
305.9084
305.8853
305.868
305.8805
305.9393
305.9255
305.9343
305.9568
305.9494
305.9518
305.9583
305.954
305.9533
305.9456
305.9456
305.9407
305.9008
305.9123
305.8959
305.8531
305.825
305.8375
305.9064
305.8817
305.8903
305.9236
305.9051
305.9075
305.9251
305.9097
305.9089
305.9125
305.9013
305.8964
305.8683
305.8686
305.8525
305.95
305.9372
305.9221
305.9655
305.9511
305.9406
305.9248
305.9673
305.9725
306.0047
305.9882
305.9889
305.929
305.8814
305.8674
305.8696
305.9003
305.9023
305.8934
305.9492
305.9333
305.8853
305.9279
305.9186
305.9642
305.9131
305.9505
305.9373
305.8889
305.93
305.9218
305.9662
305.9144
305.9713
306.0026
305.9495
305.9503
305.9865
305.9872
305.9345
305.992
305.9686
305.9638
305.9967
306.0083
306.0164
305.9997
306.025
306.0148
306.0361
306.0195
306.0314
305.984
305.9445
305.9196
305.9391
305.9531
305.9755
305.9475
305.9903
305.9643
305.9261
305.9587
305.9595
305.9951
305.9539
306.0063
306.014
305.9607
305.9852
305.9978
306.0225
305.9692
306.0127
306.0336
305.9803
305.9916
306.0174
306.0289
305.9756
306.0041
305.9767
305.976
306.0048
306.0253
306.0396
306.023
306.042
306.0268
306.0441
306.0275
306.0434
306.0009
305.9678
305.9368
305.9621
305.9702
305.9985
305.9645
306.0024
305.9724
305.9383
305.9667
305.9717
306.0031
305.966
306.0232
306.037
305.9838
306.0022
306.0208
306.0394
305.9861
306.0246
306.0415
305.9883
306.0037
306.0253
306.0408
305.9876
306.0025
305.9719
305.9744
306
306.0268
306.0441
306.0275
306.0434
306.0252
306.0394
306.0228
306.0419
306.0023
305.9724
305.9382
305.9667
305.9716
306.0031
305.9659
306.0008
305.9676
305.9366
305.962
305.9701
305.9983
305.9644
306.0246
306.0415
305.9883
306.0036
306.0253
306.0408
305.9876
306.0231
306.0369
305.9836
306.0021
306.0206
306.0393
305.9861
305.985
305.9477
305.9567
305.9761
306.0144
306.0359
306.0193
306.0311
306.0078
306.0155
305.9989
306.0245
305.99
305.964
305.9257
305.9584
305.9591
305.9948
305.9536
305.9834
305.9436
305.9191
305.9382
305.9525
305.9746
305.947
306.0123
306.0334
305.9801
305.9913
306.0172
306.0286
305.9753
306.0058
306.0132
305.9599
305.9848
305.997
306.022
305.9687
305.9255
305.8771
305.899
305.8988
305.9702
306.0034
305.9868
305.9866
305.9475
305.9352
305.9193
305.9637
305.9468
305.9318
305.8826
305.9263
305.916
305.9627
305.9104
305.9249
305.8751
305.8629
305.8625
305.8962
305.8959
305.889
305.9689
306.0012
305.948
305.9477
305.9851
305.9849
305.9319
305.9465
305.931
305.8818
305.9257
305.9155
305.9623
305.9101
306.0097
306.0168
306.0008
306.0256
305.9945
305.9728
305.9679
305.9994
306.0162
306.037
306.0322
306.021
305.9866
305.949
305.9417
305.9247
305.9779
305.9578
305.9504
306.0077
306.0144
305.962
305.9859
305.999
306.0232
305.9707
305.9931
305.9692
305.9313
305.9617
305.9643
305.9979
305.9569
306.0142
306.0345
305.9925
305.982
306.0297
306.019
305.9772
306.0524
306.0482
306.0435
306.0571
306.0525
306.0487
306.0439
306.0573
306.0589
306.0685
306.0637
306.0637
306.0432
306.0259
305.9972
305.9974
306.0344
306.0347
306.006
306.0496
306.0455
306.0036
306.0172
306.0408
306.0543
306.0124
306.0497
306.046
306.004
306.0174
306.0412
306.0545
306.0126
306.0561
306.0657
306.0238
306.0239
306.0609
306.0609
306.019
306.0644
306.0562
306.0555
306.0651
306.0694
306.0719
306.0671
306.0743
306.0709
306.0764
306.0716
306.0757
306.0601
306.0489
306.0141
306.0206
306.0513
306.0578
306.023
306.0616
306.0535
306.0156
306.0252
306.0528
306.0623
306.0245
306.0667
306.0691
306.0273
306.0345
306.0643
306.0715
306.0296
306.0681
306.0737
306.0318
306.036
306.0688
306.073
306.0311
306.0628
306.0515
306.0539
306.0604
306.0709
306.0764
306.0716
306.0757
306.0694
306.0718
306.0669
306.0742
306.0615
306.0534
306.0156
306.0252
306.0527
306.0623
306.0245
306.06
306.0488
306.0141
306.0205
306.0512
306.0576
306.023
306.0681
306.0737
306.0318
306.036
306.0688
306.0729
306.0311
306.0666
306.069
306.0272
306.0345
306.0642
306.0714
306.0296
306.0455
306.0276
306.0366
306.0365
306.0586
306.0683
306.0635
306.0635
306.052
306.0479
306.0431
306.0569
306.0493
306.0453
306.0033
306.017
306.0405
306.0542
306.0122
306.0428
306.0251
305.9967
305.9966
306.034
306.0339
306.0056
306.0559
306.0655
306.0236
306.0236
306.0607
306.0607
306.0188
306.0493
306.0452
306.0032
306.017
306.0404
306.0541
306.0121
305.9845
305.9471
305.9756
305.956
306.0141
306.0357
306.0309
306.019
305.9911
305.9675
305.9626
305.996
306.0054
306.0131
305.9595
305.9846
305.9967
306.0219
305.9683
305.9828
305.9428
305.9374
305.9178
305.974
305.9516
305.9462
306.012
306.0332
305.9911
305.9796
306.0284
306.0168
305.9748
305.9893
305.9631
305.9244
305.9576
305.9582
305.9942
305.9527
306.0269
306.0405
306.0245
306.0429
306.0068
305.9811
305.9803
306.0076
306.0284
306.0451
306.0444
306.0292
306.0038
305.9727
305.9652
305.9421
306.0014
305.9752
305.9676
306.0248
306.0379
305.9855
306.0031
306.0224
306.0403
305.9879
306.0053
305.9774
305.9436
305.9699
305.9767
306.006
305.9691
306.0263
306.0425
306.0046
305.9901
306.0418
306.027
305.9894
306.0696
306.0719
306.0672
306.0743
306.0646
306.0567
306.056
306.0654
306.0711
306.0765
306.0758
306.0718
306.0604
306.0494
306.0209
306.0146
306.058
306.0518
306.0233
306.0668
306.0691
306.0274
306.0346
306.0644
306.0715
306.0298
306.0619
306.054
306.0161
306.0255
306.0533
306.0626
306.0248
306.0683
306.0737
306.0361
306.032
306.073
306.069
306.0313
306.0816
306.0799
306.0792
306.0823
306.0816
306.08
306.0792
306.0823
306.0831
306.0845
306.0838
306.0838
306.0773
306.0726
306.038
306.038
306.0749
306.075
306.0404
306.0788
306.0771
306.0395
306.0427
306.0764
306.0795
306.042
306.0788
306.0772
306.0396
306.0427
306.0765
306.0796
306.042
306.0803
306.0818
306.0442
306.0442
306.081
306.081
306.0435
306.08
306.0752
306.0776
306.0776
306.0831
306.0845
306.0838
306.0838
306.0815
306.0799
306.0791
306.0823
306.0788
306.0771
306.0395
306.0427
306.0764
306.0795
306.0419
306.0773
306.0725
306.038
306.038
306.0749
306.0749
306.0404
306.0803
306.0817
306.0442
306.0442
306.081
306.081
306.0434
306.0788
306.0771
306.0395
306.0426
306.0764
306.0795
306.0419
306.0627
306.0514
306.0603
306.0538
306.0708
306.0764
306.0757
306.0715
306.0642
306.056
306.0553
306.0649
306.0666
306.069
306.0271
306.0344
306.0642
306.0714
306.0295
306.06
306.0487
306.0205
306.0139
306.0576
306.0511
306.0229
306.0681
306.0736
306.0359
306.0318
306.0729
306.0688
306.0311
306.0615
306.0533
306.0154
306.0251
306.0526
306.0622
306.0244
306.0019
305.9711
305.9995
305.9736
306.0264
306.0439
306.0432
306.0271
306.0035
305.9759
305.9751
306.0042
306.0227
306.0367
305.9831
306.0018
306.0203
306.039
305.9856
306.0001
305.9666
305.9611
305.9353
305.9977
305.9691
305.9635
306.0242
306.0413
306.0033
305.9878
306.0405
306.0249
305.9871
306.0016
305.9713
305.9368
305.9658
305.9706
306.0024
305.965
306.0284
306.0451
306.0292
306.0444
306.0053
305.9763
305.9788
306.0029
306.0269
306.0404
306.0428
306.0245
306.0053
305.9774
305.9698
305.9436
306.006
305.9767
305.9691
306.0263
306.0425
305.9901
306.0046
306.027
306.0418
305.9894
306.0038
305.9727
305.9421
305.9652
305.9751
306.0014
305.9676
306.0248
306.0379
306.0031
305.9855
306.0403
306.0224
305.9879
306.071
306.0765
306.0718
306.0758
306.0631
306.0521
306.0545
306.0607
306.0695
306.0719
306.0743
306.0672
306.0618
306.054
306.0255
306.0161
306.0626
306.0533
306.0248
306.0683
306.0737
306.032
306.0361
306.069
306.073
306.0313
306.0604
306.0494
306.0146
306.0209
306.0518
306.058
306.0233
306.0668
306.0691
306.0345
306.0273
306.0715
306.0644
306.0297
306.0831
306.0845
306.0838
306.0838
306.0801
306.0753
306.0777
306.0777
306.0816
306.0799
306.0823
306.0792
306.0788
306.0772
306.0427
306.0395
306.0796
306.0765
306.042
306.0803
306.0818
306.0442
306.0442
306.081
306.081
306.0435
306.0773
306.0726
306.038
306.038
306.075
306.0749
306.0404
306.0788
306.0771
306.0427
306.0395
306.0795
306.0764
306.0419
306.0815
306.0799
306.0823
306.0791
306.0815
306.0799
306.0823
306.0791
306.08
306.0752
306.0776
306.0776
306.0803
306.0817
306.0442
306.0442
306.081
306.081
306.0434
306.0788
306.0771
306.0426
306.0395
306.0795
306.0764
306.0419
306.0788
306.0771
306.0426
306.0395
306.0795
306.0764
306.0419
306.0773
306.0725
306.038
306.038
306.0749
306.0749
306.0404
306.0642
306.056
306.0649
306.0553
306.0693
306.0717
306.0741
306.0669
306.0627
306.0514
306.0538
306.0603
306.068
306.0736
306.0318
306.0359
306.0688
306.0729
306.031
306.0615
306.0533
306.0251
306.0154
306.0622
306.0526
306.0244
306.0665
306.069
306.0344
306.0271
306.0714
306.0641
306.0295
306.06
306.0487
306.0139
306.0205
306.0511
306.0576
306.0229
306.0035
305.9759
306.0042
305.9751
306.0249
306.0392
306.0416
306.0224
306.0019
305.9711
305.9736
305.9995
306.0242
306.0413
305.9878
306.0033
306.0249
306.0405
305.9871
306.0016
305.9713
305.9658
305.9368
306.0024
305.9706
305.965
306.0226
306.0366
306.0018
305.9831
306.039
306.0202
305.9855
306.0001
305.9666
305.9353
305.9611
305.969
305.9977
305.9635
306.0162
306.037
306.021
306.0321
305.9879
305.9524
305.9612
305.9791
306.0096
306.0167
306.0256
306.0008
305.9931
305.9692
305.9617
305.9312
305.9979
305.9643
305.9569
306.0142
306.0344
305.982
305.9924
306.019
306.0296
305.9772
305.9866
305.9489
305.9246
305.9416
305.9577
305.9778
305.9503
306.0077
306.0144
305.9859
305.9619
306.0231
305.9989
305.9707
306.0589
306.0684
306.0637
306.0636
306.0459
306.0284
306.0373
306.037
306.0523
306.0482
306.0571
306.0434
306.0497
306.0459
306.0174
306.0039
306.0545
306.0411
306.0125
306.0561
306.0657
306.0238
306.0238
306.0609
306.0608
306.019
306.0432
306.0258
305.9974
305.9971
306.0346
306.0344
306.0059
306.0496
306.0455
306.0171
306.0035
306.0543
306.0407
306.0124
306.0709
306.0764
306.0757
306.0716
306.0628
306.0516
306.0605
306.054
306.0643
306.0561
306.065
306.0554
306.0666
306.0691
306.0345
306.0272
306.0714
306.0643
306.0296
306.0681
306.0736
306.036
306.0318
306.0729
306.0688
306.0311
306.0601
306.0489
306.0206
306.0141
306.0577
306.0512
306.023
306.0615
306.0534
306.0252
306.0156
306.0622
306.0527
306.0245
306.0693
306.0717
306.0741
306.0669
306.0643
306.0561
306.065
306.0554
306.0627
306.0514
306.0603
306.0539
306.0681
306.0736
306.0359
306.0318
306.0729
306.0688
306.0311
306.0666
306.069
306.0344
306.0271
306.0714
306.0642
306.0295
306.0615
306.0534
306.0252
306.0155
306.0622
306.0526
306.0244
306.06
306.0487
306.0205
306.014
306.0576
306.0511
306.0229
306.052
306.0479
306.0568
306.0431
306.052
306.048
306.0569
306.0431
306.0454
306.0276
306.0365
306.0365
306.0559
306.0655
306.0236
306.0236
306.0607
306.0607
306.0187
306.0493
306.0452
306.0169
306.0031
306.0541
306.0404
306.0121
306.0493
306.0453
306.017
306.0032
306.0541
306.0404
306.0121
306.0427
306.025
305.9966
305.9966
306.0338
306.0339
306.0055
305.991
305.9675
305.9959
305.9626
306.0075
306.0154
306.0243
305.9986
305.9844
305.947
305.9559
305.9755
306.0119
306.0332
305.9796
305.9911
306.0167
306.0283
305.9748
305.9893
305.963
305.9575
305.9243
305.9941
305.9581
305.9527
306.0054
306.013
305.9845
305.9594
306.0218
305.9966
305.9682
305.9827
305.9427
305.9177
305.9374
305.9515
305.974
305.9461
305.9724
306.0047
305.9888
305.9881
305.9292
305.8826
305.9043
305.9027
305.9499
305.9371
305.9654
305.922
305.9504
305.9372
305.9299
305.8888
305.9661
305.9218
305.9143
305.9712
306.0025
305.9502
305.9494
305.9871
305.9864
305.9344
305.9289
305.8814
305.8695
305.8673
305.9023
305.9002
305.8933
305.9491
305.9332
305.9278
305.8852
305.9641
305.9185
305.913
306.0147
306.0361
306.0313
306.0194
305.9854
305.9486
305.9768
305.9572
305.9919
305.9685
305.9966
305.9637
306.0062
306.0139
305.9852
305.9607
306.0224
305.9977
305.9691
306.0126
306.0335
305.9916
305.9802
306.0288
306.0173
305.9755
305.9839
305.9445
305.939
305.9196
305.9754
305.953
305.9474
305.9902
305.9642
305.9586
305.926
305.995
305.9594
305.9538
306.0267
306.0441
306.0434
306.0274
306.0025
305.972
306.0001
305.9744
306.004
305.9766
306.0047
305.9759
306.0231
306.0369
306.0021
305.9837
306.0393
306.0207
305.9861
306.0245
306.0415
306.0036
305.9882
306.0408
306.0253
305.9875
306.0008
305.9677
305.962
305.9367
305.9984
305.9701
305.9644
306.0023
305.9723
305.9666
305.9382
306.003
305.9716
305.9659
306.0251
306.0394
306.0418
306.0227
306.004
305.9766
306.0047
305.9759
306.0024
305.9718
305.9999
305.9743
306.0245
306.0414
306.0035
305.9882
306.0407
306.0252
305.9875
306.023
306.0368
306.002
305.9835
306.0392
306.0206
305.986
306.0022
305.9723
305.9666
305.9382
306.003
305.9715
305.9658
306.0007
305.9675
305.9619
305.9366
305.9982
305.97
305.9643
306.0077
306.0155
306.0244
305.9988
305.9915
305.9682
305.9964
305.9633
305.9849
305.9476
305.9759
305.9566
306.0122
306.0333
305.9912
305.98
306.0285
306.0171
305.9752
306.0057
306.0131
305.9847
305.9598
306.0219
305.9969
305.9686
305.9899
305.964
305.9583
305.9257
305.9947
305.959
305.9535
305.9833
305.9435
305.9381
305.919
305.9745
305.9524
305.9469
305.9474
305.9351
305.9636
305.9192
305.9475
305.9356
305.9639
305.9196
305.9254
305.877
305.8987
305.8989
305.9687
306.0011
305.9476
305.9479
305.9848
305.9849
305.9318
305.9464
305.9309
305.9256
305.8817
305.9622
305.9154
305.91
305.9466
305.9317
305.9262
305.8826
305.9626
305.9159
305.9103
305.9248
305.875
305.8624
305.8628
305.8958
305.8961
305.8889
305.8216
305.851
305.8362
305.8251
305.8532
305.8376
305.8703
305.8711
305.8554
305.8628
305.8822
305.8774
305.8818
305.9064
305.8904
305.9016
305.9129
305.8969
305.8751
305.8904
305.8896
305.9052
305.9237
305.9076
305.9098
305.9252
305.9091
305.8735
305.8856
305.888
305.9098
305.9251
305.909
305.905
305.9236
305.9075
305.8557
305.8614
305.8704
305.9014
305.9126
305.8965
305.8809
305.9059
305.8898
305.7994
305.7987
305.8139
305.8687
305.8684
305.8526
305.8176
305.8486
305.8329
305.8831
305.9072
305.8919
305.868
305.8854
305.8805
305.9138
305.9034
305.8985
305.9252
305.9391
305.9342
305.9256
305.9393
305.9344
305.9458
305.9459
305.941
305.9375
305.9473
305.9466
305.9494
305.9568
305.9519
305.9541
305.9584
305.9534
305.9359
305.9425
305.945
305.9541
305.9583
305.9533
305.9493
305.9568
305.9518
305.9182
305.9181
305.9272
305.9457
305.9457
305.9407
305.9248
305.9389
305.9339
305.8605
305.854
305.8693
305.9124
305.9009
305.896
305.8607
305.8809
305.876
305.907
305.9247
305.9094
305.8805
305.8936
305.8929
305.9262
305.9116
305.9109
305.9495
305.9569
305.952
305.938
305.9476
305.9469
305.9584
305.9542
305.9535
305.962
305.9652
305.9645
305.962
305.9652
305.9645
305.9668
305.9668
305.966
305.9604
305.9604
305.9629
305.9668
305.9668
305.966
305.962
305.9652
305.9644
305.9425
305.9358
305.9449
305.9583
305.954
305.9533
305.9373
305.9472
305.9465
305.8845
305.8717
305.8869
305.9248
305.9092
305.9084
305.8732
305.8892
305.8885
305.9116
305.9262
305.9109
305.8789
305.8889
305.8914
305.9247
305.9069
305.9094
305.9542
305.9584
305.9535
305.9365
305.9429
305.9453
305.9569
305.9495
305.952
305.9668
305.9668
305.966
305.9605
305.9604
305.9629
305.9652
305.962
305.9645
305.9652
305.9619
305.9644
305.9652
305.962
305.9644
305.9604
305.9604
305.9629
305.9472
305.9373
305.9465
305.9567
305.9493
305.9517
305.9357
305.9424
305.9449
305.8892
305.8732
305.8884
305.9233
305.9044
305.9069
305.8717
305.8844
305.8869
305.9034
305.9138
305.8985
305.8613
305.865
305.8738
305.9071
305.883
305.8919
305.9459
305.9458
305.9409
305.9188
305.9186
305.9276
305.939
305.9251
305.9342
305.9583
305.9541
305.9533
305.9426
305.9359
305.945
305.9472
305.9374
305.9465
305.9567
305.9493
305.9517
305.9472
305.9374
305.9465
305.9425
305.9358
305.9449
305.9388
305.9247
305.9339
305.9389
305.9248
305.9339
305.918
305.9181
305.9271
305.8808
305.8606
305.8759
305.9056
305.8804
305.8893
305.8539
305.8604
305.8693
305.871
305.8702
305.8553
305.8061
305.8041
305.8185
305.8509
305.8215
305.8361
305.9129
305.9016
305.8968
305.8623
305.8563
305.8709
305.8821
305.8628
305.8773
305.9251
305.9097
305.909
305.8856
305.8736
305.8881
305.8903
305.8751
305.8896
305.9235
305.9049
305.9074
305.8903
305.8751
305.8895
305.8855
305.8735
305.8879
305.9058
305.8808
305.8898
305.8819
305.8624
305.877
305.8614
305.8557
305.8703
305.8485
305.8175
305.8328
305.8493
305.8188
305.8333
305.7986
305.7994
305.8138
)
;

boundaryField
{
    solid_to_air
    {
        type            compressible::turbulentTemperatureRadCoupledMixed;
        refValue        nonuniform List<scalar> 
1536
(
300.6069
300.6321
300.6484
300.6524
300.6462
300.6272
300.6282
300.8947
300.9173
300.9129
300.9212
300.8704
300.6439
300.9162
300.8907
300.8771
300.9013
300.9053
300.6477
300.9116
300.8771
300.8624
300.8889
300.906
300.6415
300.9189
300.9013
300.889
300.9112
300.9039
300.6228
300.8645
300.9017
300.9033
300.9014
300.839
300.8594
300.8581
300.3631
300.3705
300.3924
300.3809
300.4097
300.3835
300.413
300.3788
300.4059
300.3669
300.3813
300.8565
300.3706
300.392
300.5594
300.5867
300.5918
300.5816
300.543
300.3703
300.381
300.4093
300.5868
300.6183
300.6243
300.6125
300.5686
300.381
300.3836
300.4127
300.5919
300.6243
300.6305
300.6184
300.5735
300.3835
300.379
300.4055
300.5817
300.6126
300.6185
300.6069
300.5639
300.3789
300.3672
300.381
300.5432
300.5688
300.5735
300.5639
300.5278
300.3669
300.8594
300.3704
300.3809
300.3834
300.3788
300.3668
301.1061
300.4245
300.4278
300.4369
300.4391
300.442
300.442
300.4391
300.4368
300.4277
300.4243
301.1001
301.1031
300.4243
300.6265
300.6229
300.8327
300.6458
300.8646
300.8999
300.6523
300.9019
300.9032
300.6486
300.9034
300.9028
300.6327
300.9014
300.8692
300.6099
300.8391
300.6312
301.1034
300.4248
300.4276
300.4366
300.8635
300.6415
300.8974
300.9201
300.9189
300.911
300.9127
300.9014
300.8889
300.9178
300.889
300.9013
300.8993
300.9111
300.9223
300.637
300.9039
300.6511
300.4281
300.4373
300.4389
300.4418
300.8993
300.6477
300.9005
300.9014
300.9114
300.889
300.877
300.877
300.8623
300.8904
300.8624
300.877
300.919
300.8889
300.914
300.6536
300.9061
300.6576
300.4396
300.4425
300.4417
300.4389
300.9005
300.6439
300.8992
300.8891
300.9159
300.9013
300.8623
300.8905
300.877
300.877
300.877
300.8907
300.914
300.9015
300.9192
300.6575
300.9054
300.6536
300.4425
300.4396
300.4366
300.4275
300.8974
300.6282
300.8634
300.911
300.8946
300.92
300.889
300.9171
300.9127
300.9015
300.9127
300.918
300.9224
300.9212
300.8994
300.6511
300.8704
300.637
300.4373
300.4281
300.4242
301.103
300.8326
300.6068
300.6264
301.1061
300.4244
300.8998
300.632
300.6458
300.4277
300.4368
300.9032
300.6483
300.6523
300.439
300.4419
300.9029
300.6523
300.6485
300.4419
300.439
300.8693
300.6461
300.6326
300.4367
300.4276
300.6311
300.6271
300.6098
300.4247
300.4242
301.1034
301.1
300.3671
300.3814
300.3672
300.381
300.5281
300.3789
300.406
300.5433
300.5641
300.3835
300.4131
300.5688
300.5736
300.3809
300.4097
300.5736
300.5687
300.3703
300.3923
300.564
300.5431
300.855
300.3628
300.5278
300.3669
300.3818
300.5433
300.379
300.4056
300.5642
300.5817
300.5817
300.6071
300.5919
300.6126
300.6185
300.5866
300.6185
300.6125
300.5591
300.607
300.5815
300.3928
300.5639
300.3789
300.4064
300.5689
300.3836
300.4127
300.5738
300.6126
300.592
300.6186
300.6243
300.6243
300.6306
300.6182
300.6305
300.6243
300.5866
300.6185
300.5918
300.4102
300.5735
300.3835
300.4136
300.5737
300.381
300.4093
300.5689
300.6186
300.5868
300.6126
300.6306
300.6182
300.6243
300.6243
300.6243
300.6182
300.5917
300.6125
300.5866
300.4136
300.5686
300.3809
300.4102
300.5642
300.3705
300.392
300.5433
300.607
300.5593
300.5817
300.6185
300.5867
300.5918
300.6125
300.5918
300.5866
300.5815
300.5815
300.5591
300.4064
300.543
300.3703
300.3928
300.5281
300.8581
300.3631
300.3671
300.3813
300.5641
300.3923
300.3789
300.4059
300.5735
300.4096
300.3834
300.413
300.5686
300.413
300.3808
300.4096
300.543
300.4058
300.3702
300.3923
300.3817
300.3812
300.8565
300.855
300.3627
300.6616
300.6322
300.6297
301.0481
301.0457
300.5993
300.5976
300.7356
300.6377
300.7234
300.5212
300.5249
300.7576
300.6505
300.7547
300.5338
300.5355
300.7597
300.6517
300.7604
300.5372
300.5367
300.7458
300.6425
300.7517
300.5315
300.5287
300.6875
300.6252
300.7092
300.5182
300.5265
301.0473
300.5999
300.7319
300.7203
300.6336
300.52
300.5236
300.9229
300.9111
300.9104
300.9129
300.9151
300.9169
300.9098
300.9134
300.9089
300.9257
300.92
300.9235
300.8333
300.8156
300.8886
300.5226
300.5263
300.7529
300.7502
300.646
300.5325
300.5341
300.9124
300.9164
300.914
300.8768
300.8839
300.8839
300.8716
300.8788
300.8697
300.9041
300.9093
300.8953
300.858
300.8555
300.9061
300.5354
300.537
300.7545
300.7554
300.6471
300.5358
300.5352
300.9092
300.9084
300.912
300.8716
300.8698
300.8788
300.8664
300.8643
300.8643
300.9001
300.8985
300.8907
300.8593
300.8598
300.906
300.5387
300.5382
300.7403
300.7462
300.6378
300.53
300.5272
300.9239
300.9223
300.9169
300.9039
300.8953
300.9089
300.9
300.8908
300.8983
300.9227
300.9179
300.9177
300.8446
300.8517
300.8986
300.5329
300.53
300.6829
300.704
300.6213
300.5169
300.5256
300.8261
300.8833
300.8083
300.8522
300.9028
300.8494
300.8541
300.9034
300.8546
300.8401
300.8964
300.8469
300.7447
300.7877
300.7857
300.5193
300.5278
301.048
300.5992
300.5211
300.5248
300.5337
300.5354
300.5371
300.5366
300.5314
300.5286
300.5181
300.5264
300.5393
300.3906
300.4253
300.3901
300.4249
300.5524
300.3978
300.3737
300.5456
300.5674
300.4114
300.3823
300.5654
300.5685
300.4126
300.3831
300.569
300.5575
300.4028
300.3765
300.5614
300.5228
300.3772
300.3713
300.5332
300.5529
300.546
300.3974
300.3738
300.5791
300.5689
300.569
300.6009
300.5896
300.5978
300.6025
300.5911
300.6032
300.5865
300.576
300.5924
300.5355
300.5275
300.552
300.5679
300.5658
300.411
300.3824
300.6009
300.5979
300.5896
300.6252
300.6217
300.6217
300.6269
300.6234
300.6278
300.6091
300.606
300.6158
300.553
300.5507
300.5713
300.5691
300.5696
300.4122
300.3832
300.6026
300.6034
300.5912
300.627
300.6279
300.6235
300.6287
300.6296
300.6296
300.6108
300.6117
300.6176
300.5544
300.555
300.5728
300.5581
300.562
300.4024
300.3767
300.5867
300.5926
300.5762
300.6092
300.6159
300.606
300.6109
300.6176
300.6117
300.5944
300.6005
300.6005
300.5417
300.5462
300.5588
300.5235
300.5339
300.377
300.3718
300.5357
300.5521
300.5277
300.5532
300.5714
300.5508
300.5545
300.5728
300.5551
300.5418
300.5588
300.5464
300.5012
300.5134
300.5135
300.5181
300.5268
301.1801
300.522
300.5755
300.4637
300.4332
300.4748
300.5314
300.5285
300.467
300.4311
300.4704
300.4768
300.4344
300.4741
300.5372
300.5367
300.4793
300.4406
300.4809
300.4826
300.4416
300.4821
300.534
300.5356
300.4826
300.4415
300.4821
300.4794
300.4406
300.481
300.5214
300.5251
300.4769
300.4343
300.4742
300.467
300.431
300.4705
301.0446
300.5979
300.4636
300.4325
300.4741
301.1743
300.5198
300.5731
300.517
300.5257
301.1764
300.5207
300.5735
300.463
300.4327
300.4738
300.6842
300.6246
300.7064
300.683
300.6213
300.704
300.738
300.7808
300.7787
300.7443
300.6421
300.7506
300.8262
300.8084
300.8834
300.8379
300.8454
300.894
300.7593
300.6516
300.7603
300.8523
300.8496
300.9028
300.8537
300.8546
300.9029
300.7581
300.6506
300.7555
300.8542
300.8548
300.9033
300.8529
300.8507
300.9033
300.7374
300.6382
300.7257
300.8401
300.847
300.8963
300.8292
300.8124
300.8866
300.6654
300.6331
300.6359
300.7447
300.7858
300.7878
300.6893
300.6289
300.712
300.5194
300.5279
301.1783
300.5214
300.5755
300.4645
300.4333
300.4753
300.53
300.5272
300.4664
300.4309
300.4699
300.4762
300.4342
300.4735
300.8221
300.8051
300.8816
300.7403
300.6378
300.7463
300.8332
300.8918
300.8404
300.9242
300.9181
300.9227
300.9239
300.9171
300.9222
300.9215
300.9173
300.9171
300.9096
300.9132
300.9087
300.9038
300.9094
300.8952
300.8998
300.8985
300.8905
300.9128
300.9154
300.9172
300.8999
300.8988
300.8905
300.9038
300.9095
300.8949
300.9253
300.9141
300.9148
300.9227
300.9181
300.9176
300.9259
300.9211
300.9235
300.7417
300.7294
300.6428
300.8446
300.8987
300.8517
300.7505
300.6473
300.7567
300.5329
300.5301
300.4678
300.4315
300.4714
300.4778
300.4348
300.4751
300.5358
300.5352
300.4787
300.4403
300.4803
300.4819
300.4413
300.4814
300.8469
300.8444
300.9001
300.7545
300.6471
300.7554
300.8483
300.9002
300.8491
300.9037
300.9092
300.8952
300.9092
300.912
300.9083
300.8997
300.8906
300.8984
300.8715
300.879
300.8696
300.8716
300.8791
300.8696
300.8663
300.8643
300.8643
300.8765
300.8837
300.8838
300.8664
300.8647
300.8643
300.8715
300.8789
300.8694
300.9134
300.9175
300.9168
300.9002
300.8911
300.8984
300.9103
300.9149
300.9089
300.7637
300.7608
300.6557
300.8593
300.9061
300.8599
300.7654
300.6569
300.7662
300.5387
300.5382
300.4803
300.441
300.482
300.4836
300.442
300.4831
300.5324
300.5341
300.4819
300.4413
300.4814
300.4787
300.4403
300.4803
300.8483
300.8491
300.9002
300.7529
300.6459
300.7502
300.8468
300.9
300.8444
300.8997
300.8987
300.8906
300.9121
300.9138
300.9163
300.9036
300.8949
300.9091
300.8664
300.8647
300.8642
300.8766
300.8838
300.8838