/*--------------------------------*- C++ -*----------------------------------*\
| =========                 |                                                 |
| \\      /  F ield         | OpenFOAM: The Open Source CFD Toolbox           |
|  \\    /   O peration     | Version:  2506                                  |
|   \\  /    A nd           | Website:  www.openfoam.com                      |
|    \\/     M anipulation  |                                                 |
\*---------------------------------------------------------------------------*/
FoamFile
{
    version     2.0;
    format      ascii;
    arch        "LSB;label=32;scalar=64";
    class       volScalarField;
    location    "1500/solid";
    object      T;
}
// * * * * * * * * * * * * * * * * * * * * * * * * * * * * * * * * * * * * * //

dimensions      [0 0 0 1 0 0 0];

internalField   nonuniform List<scalar> 
2304
(
313.6758
313.8822
313.9569
313.9675
313.9459
313.8433
313.8818
314.1066
314.1822
314.1929
314.1721
314.0683
313.9546
314.18
314.2564
314.2673
314.2466
314.1427
313.9657
314.1908
314.2673
314.2782
314.2576
314.1537
313.945
314.1705
314.2468
314.2576
314.237
314.1329
313.8422
314.0657
314.141
314.1515
314.1306
314.0272
313.7625
313.9344
313.9346
314.141
313.974
314.0388
314.1816
314.2466
314.0484
314.0591
314.2561
314.2666
314.0589
314.0471
314.2665
314.2552
314.0375
313.9744
314.2459
314.1832
313.9356
313.763
314.1438
313.9378
313.9735
314.1807
314.0364
314.2437
314.2215
314.2868
314.2848
314.3505
314.2963
314.3069
314.36
314.3708
314.3068
314.2956
314.3707
314.3597
314.2863
314.2236
314.3505
314.2876
314.184
313.9775
314.2481
314.0419
314.0458
314.2529
314.0568
314.2636
314.294
314.3597
314.3046
314.3703
314.3693
314.3801
314.3799
314.3908
314.38
314.369
314.3907
314.3798
314.3598
314.297
314.3705
314.3078
314.2574
314.0515
314.2683
314.0628
314.0568
314.2636
314.0457
314.2529
314.3046
314.3703
314.2939
314.3596
314.3799
314.3908
314.3692
314.38
314.3907
314.3798
314.3799
314.3689
314.3705
314.3078
314.3597
314.2969
314.2683
314.0628
314.2573
314.0514
314.0363
314.2436
313.9732
314.1804
314.2847
314.3504
314.2213
314.2866
314.3599
314.3707
314.296
314.3067
314.3706
314.3596
314.3065
314.2954
314.3504
314.2875
314.2861
314.2232
314.2479
314.0417
314.1837
313.9771
313.9342
314.1406
313.7615
313.9335
314.1812
314.2463
313.9732
314.038
314.2557
314.2663
314.0475
314.0582
314.2661
314.2549
314.058
314.0462
314.2455
314.1828
314.0366
313.9734
314.1434
313.9373
313.9346
313.762
313.8422
313.8426
314.0251
313.9473
314.0661
314.1317
313.9677
314.1414
314.1521
313.9556
314.1519
314.1405
313.8824
314.131
314.0675
313.6755
314.0276
313.8447
314.0653
313.9452
314.129
314.1726
314.1706
314.2371
314.193
314.2469
314.2579
314.1815
314.2577
314.2466
314.1085
314.2371
314.1733
313.8847
314.1331
313.9495
314.1384
313.9657
314.1492
314.2466
314.1908
314.2574
314.2674
314.2673
314.2783
314.2561
314.2782
314.2671
314.1829
314.2576
314.1939
313.9592
314.1537
313.9706
314.1492
313.9545
314.1383
314.2574
314.18
314.2465
314.2783
314.2563
314.2673
314.2671
314.2672
314.256
314.1939
314.2466
314.1828
313.9706
314.1425
313.9591
314.1289
313.8815
314.065
314.237
314.1063
314.1723
314.2578
314.182
314.1928
314.2464
314.1926
314.1813
314.1732
314.1718
314.1081
313.9493
314.068
313.8843
314.0247
313.6748
313.8412
314.1314
313.8812
313.9463
314.1517
313.956
313.9668
314.1401
313.9665
313.9546
314.0671
313.9449
313.8814
313.8442
313.8423
313.6744
313.9188
313.7806
313.8446
313.8447
314.1086
313.9994
314.029
314.0791
314.1596
314.0742
314.0802
314.1536
314.1621
314.0846
314.0827
314.164
314.1285
314.063
314.0488
314.1427
313.9884
313.9605
313.9095
314.0403
314.1052
313.9971
314.0764
314.0258
314.301
314.242
314.2719
314.2711
314.3519
314.3168
314.3227
314.346
314.3546
314.3271
314.3254
314.3563
314.3219
314.3065
314.2925
314.3358
314.18
314.2038
314.1507
314.2331
314.1548
314.0698
314.1489
314.0758
314.3504
314.3146
314.3446
314.3204
314.4014
314.3897
314.3956
314.3955
314.4043
314.4002
314.3985
314.406
314.3717
314.3798
314.3658
314.3856
314.2302
314.2772
314.2243
314.2831
314.1582
314.0809
314.1598
314.0793
314.3537
314.3253
314.3552
314.3237
314.4047
314.4004
314.4063
314.3988
314.4076
314.4109
314.4092
314.4093
314.375
314.3905
314.3766
314.3889
314.2336
314.2881
314.2352
314.2865
314.1254
314.0603
314.1395
314.0462
314.3214
314.3053
314.3353
314.2914
314.3723
314.3804
314.3863
314.3664
314.375
314.3908
314.3891
314.3768
314.3423
314.3704
314.3565
314.3563
314.2005
314.2678
314.2147
314.2536
313.9844
313.9576
314.0367
313.9063
314.1772
314.2015
314.2313
314.1475
314.228
314.2762
314.2821
314.2221
314.2305
314.2865
314.2847
314.2323
314.1972
314.2656
314.2516
314.2113
314.0562
314.163
314.11
314.1088
313.7304
313.7313
313.792
313.9117
313.9474
313.9769
313.963
314.0221
314.028
313.9656
314.0325
314.0307
313.9317
314.0112
313.9971
313.7924
313.9086
313.857
313.9461
313.9105
313.9749
314.1367
314.1359
314.166
314.1882
314.2118
314.2178
314.1911
314.2225
314.2208
314.158
314.2018
314.1877
314.0154
314.0979
314.0449
314.0188
313.9606
314.0247
314.2104
314.1859
314.2162
314.2625
314.2623
314.2684
314.2656
314.2732
314.2716
314.2326
314.2526
314.2385
314.0897
314.1486
314.0957
314.0297
313.9641
314.0281
314.2211
314.1893
314.2196
314.2734
314.2657
314.2718
314.2766
314.2767
314.275
314.2435
314.256
314.2419
314.1007
314.1521
314.0991
314.0093
313.9309
313.9952
314.2008
314.1564
314.1867
314.2528
314.2325
314.2386
314.256
314.2433
314.2416
314.2229
314.2226
314.2085
314.0799
314.1186
314.0655
313.9063
313.7912
313.8545
314.0956
314.0123
314.042
314.147
314.0872
314.0932
314.1498
314.0977
314.0959
314.1165
314.0766
314.0625
313.9745
313.9736
313.9213
313.9856
313.9593
313.9073
314.0387
313.9849
313.958
313.9068
314.0371
314.0532
314.1608
314.1072
314.1063
313.9414
313.7996
313.8226
313.8234
313.8613
313.8619
313.8999
314.0087
313.9738
313.8833
314.0188
313.9225
314.0613
313.9666
314.0084
313.9734
313.8841
314.0181
313.9228
314.0602
313.9665
314.0776
314.1843
314.088
314.0873
314.131
314.1302
314.0349
314.1297
314.0646
314.0501
314.1441
314.1776
314.2018
314.1479
314.2317
314.1987
314.2671
314.213
314.2527
314.1306
314.0135
314.0034
314.0587
314.0429
314.1012
314.088
314.1515
314.0783
314.0244
314.1233
314.0639
314.1658
314.1089
314.2008
314.2249
314.1282
314.2112
314.1713
314.2545
314.1577
314.2217
314.2898
314.193
314.2322
314.2361
314.2755
314.1786
314.1629
314.0849
314.0835
314.1643
314.2284
314.2765
314.2225
314.2824
314.2317
314.287
314.233
314.2857
314.1812
314.0879
314.0544
314.1328
314.0938
314.1753
314.1387
314.1845
314.0985
314.0577
314.1434
314.0972
314.1858
314.142
314.2513
314.2992
314.2024
314.262
314.2455
314.3051
314.2083
314.2546
314.3097
314.213
314.2653
314.256
314.3084
314.2116
314.1584
314.0727
314.0789
314.1522
314.2309
314.2868
314.2328
314.285
314.2273
314.2754
314.2212
314.2814
314.1838
314.0983
314.057
314.1431
314.0964
314.1856
314.1413
314.1801
314.0864
314.0533
314.1316
314.0926
314.174
314.1377
314.254
314.3095
314.2128
314.2647
314.2557
314.3078
314.211
314.2504
314.2983
314.2014
314.2612
314.2443
314.3042
314.2074
314.1081
313.9996
314.0283
314.0795
314.1977
314.266
314.2118
314.252
314.1774
314.203
314.1487
314.2317
314.1506
314.0769
314.0233
314.1221
314.0627
314.1646
314.1081
314.1303
314.0138
314.0029
314.0594
314.0423
314.1019
314.0878
314.2211
314.289
314.192
314.232
314.235
314.2751
314.1781
314.2009
314.2264
314.1294
314.2118
314.1724
314.2549
314.1579
313.9227
313.7833
313.8475
313.8488
314.0567
314.1634
314.1093
314.1104
313.9898
313.9644
313.9121
314.0429
314.0115
313.975
313.8851
314.0205
313.9246
314.063
313.9691
313.9447
313.8012
313.8243
313.8247
313.8636
313.8645
313.9025
314.0811
314.1871
314.0902
314.0912
314.1333
314.1344
314.038
314.0127
313.9782
313.8864
314.0224
313.9266
314.0653
313.9699
314.1748
314.2008
314.146
314.2298
314.1256
314.0604
314.0463
314.1396
314.1952
314.2641
314.2502
314.2092
314.1277
314.0122
314.0571
314.002
314.0992
314.0408
314.0857
314.1982
314.224
314.1267
314.2095
314.1696
314.2527
314.1554
314.148
314.0752
314.0224
314.1198
314.0612
314.1619
314.1059
314.2185
314.2869
314.2299
314.1895
314.273
314.2323
314.1756
314.3222
314.3074
314.293
314.3366
314.3215
314.3054
314.2915
314.3354
314.3426
314.371
314.3571
314.3566
314.3235
314.2648
314.2513
314.2505
314.2946
314.2937
314.2804
314.3446
314.3299
314.2724
314.316
314.3156
314.359
314.3015
314.3439
314.3279
314.2709
314.3148
314.314
314.3578
314.3008
314.365
314.3933
314.3365
314.336
314.3794
314.3789
314.322
314.3552
314.3273
314.326
314.3565
314.3724
314.3805
314.3665
314.3864
314.3757
314.3911
314.3771
314.3897
314.3743
314.3393
314.3022
314.3255
314.3452
314.3684
314.3314
314.3776
314.3499
314.3055
314.3362
314.3485
314.379
314.3347
314.3947
314.4028
314.346
314.366
314.3888
314.4086
314.352
314.398
314.4134
314.3567
314.3693
314.3994
314.412
314.3553
314.351
314.3158
314.3218
314.3451
314.3752
314.3909
314.3769
314.3892
314.3716
314.3798
314.3657
314.3857
314.3771
314.3497
314.3051
314.336
314.348
314.3788
314.3343
314.3736
314.3385
314.3015
314.3249
314.3444
314.3677
314.3308
314.3976
314.4133
314.3566
314.369
314.3993
314.4116
314.355
314.3941
314.4023
314.3456
314.3656
314.3883
314.4081
314.3515
314.3015
314.2435
314.2722
314.2728
314.3425
314.3705
314.3564
314.3566
314.3222
314.3075
314.2934
314.3363
314.3447
314.3293
314.2725
314.3157
314.3155
314.3585
314.3018
314.3245
314.2667
314.2522
314.2529
314.2953
314.2959
314.2815
314.3653
314.3931
314.3364
314.3366
314.3791
314.3793
314.3225
314.3451
314.3305
314.2735
314.3163
314.3165
314.3591
314.3022
314.1122
314.0043
314.0829
314.0337
314.2007
314.2679
314.2538
314.2149
314.133
314.069
314.0546
314.1473
314.2035
314.2273
314.1312
314.2133
314.1744
314.2565
314.1604
314.1341
314.0179
314.0621
314.0067
314.105
314.0471
314.0912
314.2241
314.2911
314.2339
314.1952
314.277
314.2382
314.181
314.1548
314.0823
314.0275
314.1262
314.0679
314.169
314.1119
314.2243
314.2734
314.2184
314.2792
314.1583
314.0809
314.0793
314.1598
314.2276
314.2841
314.2825
314.2292
314.177
314.0845
314.1291
314.0517
314.1711
314.0905
314.135
314.2473
314.296
314.1987
314.2587
314.2415
314.3018
314.2045
314.1804
314.0955
314.0552
314.1399
314.0939
314.1819
314.1384
314.2507
314.3066
314.2621
314.2094
314.3051
314.2522
314.2079
314.3716
314.3802
314.3658
314.386
314.3537
314.3253
314.3237
314.3552
314.3749
314.3909
314.3893
314.3764
314.3726
314.337
314.324
314.2997
314.3669
314.3427
314.3297
314.3938
314.4024
314.3452
314.3655
314.388
314.4082
314.351
314.3759
314.3476
314.3031
314.3346
314.3461
314.3774
314.3331
314.3971
314.413
314.3688
314.3558
314.4115
314.3986
314.3543
314.4047
314.4003
314.3989
314.4061
314.4047
314.4004
314.3988
314.4063
314.4081
314.411
314.4095
314.4096
314.4236
314.4119
314.3752
314.3751
314.4178
314.4177
314.381
314.4269
314.4226
314.3786
314.3859
314.4212
314.4284
314.3844
314.4269
314.4225
314.3784
314.3859
314.421
314.4284
314.3844
314.4303
314.4332
314.3893
314.3893
314.4317
314.4318
314.3878
314.4008
314.389
314.3949
314.3948
314.4076
314.4109
314.4093
314.4092
314.4041
314.3997
314.3982
314.4056
314.4266
314.4225
314.3783
314.3858
314.4208
314.4283
314.3842
314.4232
314.4115
314.3749
314.3749
314.4174
314.4173
314.3807
314.4299
314.4331
314.3892
314.3891
314.4316
314.4315
314.3875
314.4265
314.4222
314.3782
314.3856
314.4207
314.428
314.3841
314.3514
314.3168
314.3456
314.3227
314.375
314.3905
314.389
314.3766
314.3548
314.3276
314.3261
314.3563
314.3943
314.4023
314.3459
314.3656
314.3885
314.4081
314.3518
314.3742
314.3398
314.3257
314.3029
314.3684
314.3456
314.3315
314.3977
314.413
314.369
314.3567
314.4115
314.3992
314.3551
314.3776
314.3505
314.3063
314.3364
314.349
314.3791
314.3349
314.1628
314.0786
314.1568
314.0847
314.2337
314.2881
314.2865
314.2352
314.1663
314.0899
314.0883
314.1679
314.2535
314.3004
314.2046
314.2633
314.2476
314.3063
314.2105
314.1844
314.0918
314.1357
314.0576
314.1785
314.0979
314.1417
314.2569
314.3112
314.2667
314.2155
314.3097
314.2585
314.214
314.1879
314.1031
314.0612
314.1467
314.1015
314.1895
314.1452
314.2276
314.2841
314.2292
314.2825
314.1548
314.0698
314.0758
314.1488
314.2242
314.2733
314.2791
314.2183
314.1803
314.0955
314.1399
314.0552
314.1819
314.0939
314.1383
314.2506
314.3066
314.2094
314.262
314.2522
314.3051
314.2079
314.1769
314.0845
314.0517
314.129
314.0904
314.1711
314.1349
314.2473
314.2959
314.2587
314.1986
314.3017
314.2414
314.2045
314.3749
314.3909
314.3764
314.3893
314.3503
314.3145
314.3203
314.3445
314.3715
314.3802
314.386
314.3657
314.3759
314.3476
314.3346
314.3031
314.3774
314.346
314.333
314.397
314.413
314.3558
314.3688
314.3986
314.4115
314.3543
314.3726
314.3369
314.2997
314.3239
314.3427
314.3668
314.3297
314.3937
314.4024
314.3655
314.3451
314.4081
314.388
314.3509
314.4081
314.411
314.4096
314.4095
314.4013
314.3896
314.3954
314.3955
314.4047
314.4003
314.4061
314.3989
314.4269
314.4225
314.3859
314.3784
314.4284
314.421
314.3844
314.4302
314.4332
314.3893
314.3892
314.4318
314.4317
314.3878
314.4235
314.4119
314.375
314.3752
314.4176
314.4178
314.381
314.4269
314.4225
314.3859
314.3786
314.4283
314.4211
314.3844
314.4041
314.3997
314.4056
314.3982
314.4042
314.4001
314.4059
314.3984
314.4007
314.3889
314.3948
314.3949
314.4299
314.4331
314.3891
314.3891
314.4314
314.4316
314.3875
314.4265
314.4222
314.3856
314.3782
314.428
314.4206
314.3841
314.4266
314.4224
314.3858
314.3783
314.4282
314.4207
314.3841
314.4231
314.4114
314.3748
314.3748
314.4173
314.4173
314.3807
314.3548
314.3276
314.3563
314.3261
314.3716
314.3797
314.3855
314.3658
314.3513
314.3167
314.3226
314.3455
314.3977
314.413
314.3567
314.369
314.3992
314.4115
314.3551
314.3775
314.3505
314.3364
314.3062
314.3791
314.349
314.3349
314.3943
314.4023
314.3656
314.3458
314.4081
314.3885
314.3517
314.3741
314.3397
314.3028
314.3256
314.3456
314.3683
314.3315
314.1663
314.0899
314.1679
314.0882
314.2301
314.2771
314.2831
314.2241
314.1627
314.0785
314.0846
314.1566
314.2569
314.3112
314.2155
314.2667
314.2585
314.3096
314.2139
314.1879
314.1031
314.1467
314.0611
314.1895
314.1014
314.1451
314.2534
314.3003
314.2633
314.2045
314.3062
314.2475
314.2104
314.1843
314.0917
314.0575
314.1355
314.0978
314.1783
314.1416
314.1951
314.264
314.2091
314.2501
314.105
313.9969
314.0257
314.0762
314.1746
314.2006
314.2296
314.1457
314.1478
314.0751
314.1197
314.0222
314.1618
314.061
314.1058
314.2183
314.2868
314.1894
314.2297
314.2322
314.2729
314.1755
314.1275
314.012
314.0018
314.0568
314.0406
314.0989
314.0855
314.198
314.2237
314.2093
314.1264
314.2525
314.1693
314.1552
314.3425
314.3709
314.3565
314.3569
314.3008
314.2418
314.2709
314.2717
314.322
314.3072
314.3364
314.2928
314.3438
314.3278
314.3147
314.2707
314.3577
314.3139
314.3007
314.3649
314.3932
314.3359
314.3364
314.3788
314.3792
314.3219
314.3233
314.2645
314.2503
314.2511
314.2935
314.2943
314.2802
314.3444
314.3297
314.3158
314.2722
314.3588
314.3153
314.3013
314.3756
314.391
314.3896
314.3769
314.3517
314.3166
314.3458
314.3224
314.355
314.3271
314.3563
314.3257
314.3946
314.4027
314.3659
314.3459
314.4085
314.3887
314.3518
314.3979
314.4133
314.3692
314.3566
314.4119
314.3993
314.3552
314.3741
314.3391
314.3253
314.3019
314.3682
314.3449
314.3312
314.3774
314.3496
314.336
314.3053
314.3788
314.3482
314.3345
314.3715
314.3796
314.3856
314.3655
314.3544
314.3269
314.3561
314.3251
314.3508
314.3155
314.3449
314.3215
314.3975
314.4132
314.3689
314.3565
314.4115
314.3991
314.3548
314.394
314.4022
314.3655
314.3455
314.408
314.3881
314.3513
314.3769
314.3494
314.3358
314.3048
314.3786
314.3477
314.3341
314.3734
314.3383
314.3247
314.3013
314.3675
314.3442
314.3306
314.322
314.3074
314.3362
314.2933
314.3216
314.3062
314.3356
314.2922
314.3013
314.2431
314.2726
314.2719
314.3651
314.393
314.3365
314.3362
314.3792
314.3789
314.3223
314.3449
314.3304
314.3162
314.2734
314.359
314.3163
314.3021
314.3445
314.329
314.3155
314.2722
314.3583
314.3152
314.3016
314.3243
314.2664
314.2526
314.2519
314.2957
314.295
314.2813
314.1327
314.0688
314.1471
314.0543
314.1797
314.2035
314.2329
314.1503
314.1119
314.0039
314.0333
314.0825
314.2239
314.291
314.195
314.2338
314.2381
314.2769
314.1808
314.1546
314.082
314.126
314.0273
314.1688
314.0676
314.1117
314.2032
314.227
314.213
314.1308
314.2562
314.174
314.1601
314.1338
314.0174
314.0063
314.0617
314.0467
314.1046
314.0909
314.0528
314.1605
314.1059
314.1068
313.9182
313.7798
313.8441
313.8439
313.985
313.9587
314.0382
313.9066
314.0079
313.973
314.0177
313.8836
314.0598
313.9223
313.966
314.0771
314.1839
314.0869
314.0875
314.1299
314.1306
314.0344
313.9407
313.7987
313.8227
313.8216
313.8612
313.8604
313.8992
314.0081
313.973
314.0182
313.8824
314.0607
313.9217
313.9659
314.1982
314.2668
314.2524
314.2126
314.1081
313.9988
314.0785
314.0283
314.1292
314.064
314.1436
314.0495
314.2004
314.2245
314.2109
314.1277
314.2542
314.1709
314.1572
314.2213
314.2895
314.2319
314.1925
314.2752
314.2356
314.1781
314.13
314.0128
314.058
314.0025
314.1006
314.0422
314.0874
314.1509
314.0776
314.1227
314.0235
314.1653
314.0632
314.1083
314.2313
314.2867
314.2853
314.2326
314.1591
314.0736
314.1531
314.0796
314.1624
314.0843
314.1637
314.0829
314.2509
314.2989
314.2616
314.202
314.3047
314.245
314.2078
314.2542
314.3094
314.2649
314.2125
314.308
314.2555
314.2111
314.1806
314.0872
314.1321
314.0535
314.1747
314.0931
314.1381
314.1839
314.0978
314.1427
314.0569
314.1853
314.0965
314.1414
314.2268
314.275
314.281
314.2207
314.1616
314.084
314.1634
314.0821
314.1578
314.072
314.1517
314.0783
314.2535
314.3092
314.2644
314.2123
314.3074
314.2553
314.2105
314.2499
314.2979
314.2608
314.2009
314.3039
314.2439
314.2069
314.1832
314.0976
314.1425
314.0561
314.185
314.0957
314.1407
314.1795
314.0857
314.1309
314.0524
314.1734
314.0919
314.137
314.1769
314.2026
314.2313
314.1482
314.128
314.0624
314.1421
314.0481
314.1075
313.9988
314.0788
314.0276
314.2206
314.2886
314.2316
314.1915
314.2748
314.2345
314.1776
314.2004
314.226
314.2114
314.1288
314.2546
314.1719
314.1573
314.1499
314.0761
314.1215
314.0224
314.164
314.062
314.1074
314.1297
314.013
314.0587
314.002
314.1012
314.0415
314.0871
313.9892
313.9638
314.0424
313.9115
313.9877
313.9598
314.0397
313.9087
313.922
313.7824
313.848
313.8467
314.0805
314.1867
314.0907
314.0897
314.134
314.1328
314.0375
314.012
313.9777
314.0219
313.8857
314.0648
313.926
313.9693
314.0108
313.9742
314.0198
313.8842
314.0624
313.9237
313.9683
313.9439
313.8003
313.8238
313.8233
313.8637
313.8628
313.9017
313.7908
313.9071
313.855
313.7917
313.9066
313.855
313.9721
313.9716
313.9192
313.9328
314.0124
313.998
314.0128
314.096
314.0425
314.0781
314.1172
314.0636
313.9664
314.0328
314.0314
314.0877
314.1473
314.0936
314.0984
314.1507
314.097
313.9618
314.0208
314.027
314.0982
314.1501
314.0964
314.0866
314.1465
314.0927
313.9111
313.948
313.9766
314.0771
314.1169
314.063
314.0138
314.0964
314.0425
313.7316
313.7315
313.7938
313.9741
313.975
313.9219
313.7929
313.9101
313.8576
314.0115
314.0944
314.0404
313.931
314.0094
313.9953
314.115
314.0749
314.0609
314.158
314.2021
314.1875
314.1565
314.2009
314.1868
314.2229
314.2224
314.2083
314.1916
314.2226
314.2212
314.2327
314.2529
314.2387
314.2436
314.2564
314.2421
314.1875
314.2112
314.2172
314.2435
314.2561
314.2418
314.2322
314.2525
314.2382
314.1374
314.1381
314.1671
314.2228
314.223
314.2087
314.159
314.2024
314.1881
313.9503
313.9141
313.9796
314.1188
314.0801
314.0658
313.9351
314.0149
314.0005
314.0843
314.1443
314.0902
313.9641
314.0297
314.0282
314.1477
314.0951
314.0936
314.2319
314.2525
314.2378
314.1893
314.2212
314.2196
314.2559
314.2427
314.2412
314.2659
314.2734
314.2719
314.2657
314.2734
314.2718
314.2768
314.2768
314.2753
314.2621
314.2621
314.268
314.2767
314.2766
314.275
314.2655
314.273
314.2715
314.212
314.1889
314.2179
314.2561
314.2435
314.242
314.1923
314.2229
314.2214
314.0245
313.9654
314.0306
314.1521
314.1008
314.0992
313.969
314.0357
314.0341
314.0951
314.1476
314.0935
313.9606
314.0187
314.0247
314.1442
314.0842
314.0901
314.2427
314.2559
314.2412
314.1858
314.2103
314.2162
314.2524
314.2318
314.2377
314.2768
314.2768
314.2753
314.2623
314.2624
314.2683
314.2733
314.2659
314.2718
314.273
314.2655
314.2715
314.2732
314.2656
314.2715
314.262
314.262
314.268
314.2229
314.1923
314.2214
314.2526
314.2325
314.2385
314.1888
314.2119
314.2179
314.0357
313.9689
314.0341
314.1486
314.0895
314.0956
313.9653
314.0244
314.0305
314.0748
314.1148
314.0607
313.9103
313.9459
313.9747
314.0942
314.0112
314.0402
314.2223
314.2228
314.2081
314.1357
314.1364
314.1658
314.2019
314.1577
314.1873
314.2563
314.2435
314.242
314.2116
314.188
314.2176
314.2225
314.1913
314.221
314.2524
314.2321
314.2381
314.2223
314.1909
314.2206
314.211
314.1873
314.217
314.2023
314.1589
314.1879
314.2016
314.1577
314.1875
314.1378
314.1371
314.1669
314.0147
313.9348
314.0003
314.0976
314.0151
314.0446
313.9137
313.9499
313.9793
313.9712
313.9716
313.9187
313.7305
313.7293
313.7912
313.9064
313.7898
313.8542
314.1169
314.0776
314.0631
313.9467
313.9107
313.9762
314.0118
313.9318
313.9973
314.1503
314.0979
314.0965
314.0214
313.962
314.0274
314.0321
313.9654
314.0307
314.1462
314.0861
314.0922
314.0319
313.9646
314.03
314.0201
313.9609
314.0263
314.096
314.0132
314.042
314.0105
313.9307
313.9964
313.9472
313.9101
313.9759
313.9096
313.7922
313.857
313.9078
313.7913
313.8563
313.7306
313.7306
313.793
)
;

boundaryField
{
    solid_to_air
    {
        type            compressible::turbulentTemperatureRadCoupledMixed;
        refValue        nonuniform List<scalar> 
1536
(
301.2968
301.3709
301.3816
301.3805
301.3746
301.36
301.2855
301.3011
301.2108
301.1795
301.1809
301.2333
301.2971
301.2313
301.1525
301.1283
301.1266
301.1661
301.2991
301.2155
301.1413
301.1189
301.1169
301.1525
301.2957
301.2429
301.1598
301.1342
301.133
301.1764
301.2827
301.3347
301.2486
301.2138
301.2167
301.2686
302.1262
302.1044
300.7945
300.8611
300.7932
300.8821
300.8126
300.8886
300.8163
300.8825
300.8122
300.8633
300.787
302.13
300.8545
300.7734
301.1666
301.194
301.1996
301.1994
301.1706
300.8794
300.872
300.7908
301.1889
301.2173
301.2245
301.2262
301.2002
300.9015
300.8762
300.7944
301.1937
301.2236
301.2316
301.2331
301.2064
300.9069
300.869
300.7907
301.1942
301.2256
301.2332
301.2331
301.2026
300.8981
300.8504
300.7657
301.1651
301.1978
301.2045
301.2006
301.1628
300.8741
302.1259
300.861
300.8821
300.8886
300.8826
300.8633
302.6548
300.9699
300.9733
300.9922
300.9958
301.0021
301.0022
300.9983
300.9953
300.9787
300.9731
302.5726
302.6076
300.9431
301.3675
301.2827
301.3626
301.3813
301.3348
301.2637
301.3815
301.2478
301.2179
301.3763
301.2134
301.2114
301.363
301.2163
301.2463
301.3613
301.2679
301.4233
302.6969
301.0136
300.9471
300.9624
301.3395
301.2956
301.2868
301.2264
301.2428
301.1713
301.1839
301.1597
301.1374
301.1775
301.1341
301.1312
301.2105
301.133
301.1559
301.4194
301.1764
301.4138
301.0198
301.0408
300.965
300.9692
301.2765
301.2988
301.258
301.1634
301.2153
301.1507
301.1316
301.1412
301.1217
301.1254
301.1187
301.1159
301.1475
301.1168
301.1354
301.4102
301.1525
301.4063
301.0446
301.0505
300.9692
300.965
301.2599
301.2967
301.2749
301.1511
301.2313
301.1631
301.1219
301.1526
301.1315
301.116
301.1283
301.1254
301.1356
301.1266
301.1474
301.4064
301.1662
301.4102
301.0506
301.0447
300.9623
300.947
301.2885
301.2851
301.3384
301.1719
301.3017
301.2265
301.1377
301.2113
301.184
301.1315
301.1798
301.1776
301.1562
301.1811
301.2105
301.4139
301.2337
301.4195
301.0409
301.0199
300.9429
302.6072
301.3634
301.2967
301.3676
302.6541
300.9699
301.2662
301.3711
301.3816
300.9733
300.9922
301.219
301.3818
301.3819
300.9959
301.0021
301.2123
301.3807
301.3766
301.0023
300.9984
301.2474
301.3749
301.3633
300.9954
300.9788
301.4234
301.3601
301.3613
301.0138
300.9732
302.6968
302.5723
300.8571
300.7847
300.8505
300.7658
301.1566
300.8786
300.8125
301.1651
301.1993
300.8883
300.8169
301.1978
301.2051
300.8854
300.8129
301.2045
301.1998
300.8679
300.7949
301.2007
301.1717
302.0705
300.8005
301.1629
300.8741
300.8129
301.1653
300.8691
300.7907
301.196
301.1984
301.1941
301.2311
301.2005
301.2255
301.2336
301.196
301.2331
301.2279
301.1736
301.233
301.2029
300.8217
301.2025
300.8981
300.8415
301.1944
300.8763
300.7944
301.1999
301.2245
301.1937
301.2308
301.2253
301.2236
301.232
301.22
301.2316
301.2261
301.1981
301.233
301.2032
300.8416
301.2064
300.9069
300.8456
301.2003
300.872
300.7907
301.194
301.2313
301.1889
301.224
301.2325
301.2173
301.2248
301.2266
301.2244
301.2196
301.2035
301.2261
301.1978
300.8457
301.2001
300.9015
300.8416
301.1962
300.8544
300.7733
301.1651
301.2315
301.1667
301.1982
301.2341
301.1942
301.2004
301.2284
301.1998
301.1959
301.2033
301.1995
301.1737
300.8416
301.1706
300.8795
300.8218
301.1567
302.1041
300.7944
300.857
300.7847
301.1994
300.7932
300.8785
300.8125
301.2053
300.8127
300.8883
300.8169
301.2
300.8164
300.8854
300.813
301.1718
300.8123
300.8679
300.795
300.813
300.7871
302.1297
302.0701
300.8005
301.3354
301.3788
301.3158
302.3577
302.3353
301.334
301.2673
301.3507
301.3764
301.3554
301.145
301.1526
301.3165
301.3826
301.3232
301.1673
301.1701
301.2983
301.3797
301.3002
301.172
301.1713
301.3025
301.3715
301.2997
301.1648
301.1602
301.3122
301.3589
301.3142
301.1421
301.1529
302.4101
301.3697
301.3352
301.3365
301.29
301.1
301.1063
301.2443
301.2704
301.2762
301.1754
301.1989
301.1864
301.1549
301.1769
301.1572
301.1632
301.1867
301.1576
301.2326
301.2548
301.208
301.2124
301.2212
301.3209
301.3232
301.2984
301.1183
301.1204
301.1926
301.2
301.223
301.1373
301.143
301.1462
301.1209
301.126
301.123
301.1249
301.1303
301.1212
301.1834
301.1909
301.1586
301.2354
301.2381
301.3187
301.317
301.2987
301.1222
301.1214
301.188
301.1853
301.218
301.1343
301.1324
301.1429
301.1183
301.1167
301.1203
301.1219
301.1202
301.1183
301.1787
301.1766
301.1543
301.2401
301.2392
301.3314
301.3277
301.2929
301.1157
301.1112
301.2253
301.2107
301.2572
301.1611
301.1497
301.1714
301.1421
301.1318
301.1443
301.1486
301.1372
301.1436
301.2151
301.202
301.1896
301.2329
301.2274
301.33
301.3374
301.2861
301.0955
301.1117
301.3352
301.3077
301.3531
301.2739
301.2351
301.286
301.2498
301.2107
301.2528
301.2606
301.2229
301.2552
301.3001
301.2839
301.2945
301.2057
301.2179
302.3573
301.3342
301.1451
301.1527
301.1674
301.1703
301.1722
301.1715
301.165
301.1604
301.1422
301.153
301.2592
300.842
301.0282
300.8241
301.0064
301.2469
300.8036
300.8677
301.2311
301.2674
300.8158
300.8852
301.2628
301.2691
300.8157
300.8883
301.2694
301.2563
300.8071
300.8785
301.263
301.2
300.7838
300.8758
301.2239
301.2504
301.2358
300.783
300.8602
301.2098
301.1881
301.1857
301.2241
301.1995
301.2171
301.2236
301.1987
301.2241
301.2129
301.19
301.2228
301.1562
301.1389
301.19
301.2687
301.2649
300.7937
300.8743
301.221
301.2148
301.1937
301.2323
301.2245
301.2239
301.231
301.2232
301.2319
301.2213
301.2145
301.2329
301.1686
301.1639
301.2053
301.2693
301.2701
300.7937
300.8755
301.2194
301.2207
301.192
301.2296
301.2315
301.2213
301.2282
301.2302
301.2291
301.2191
301.2207
301.2307
301.168
301.1689
301.2046
301.2557
301.2628
300.7854
300.8648
301.2085
301.2195
301.1838
301.2193
301.2327
301.2122
301.2182
301.2319
301.2188
301.2095
301.2215
301.2195
301.1577
301.1662
301.1919
301.1991
301.2219
300.7657
300.8658
301.1515
301.1853
301.1336
301.1656
301.2031
301.1606
301.1657
301.2035
301.1658
301.1562
301.1915
301.1632
301.1068
301.1322
301.1318
301.1408
301.1622
302.724
301.2495
301.3415
301.0419
301.0012
301.0768
301.1643
301.1588
301.0454
300.9802
301.0529
301.0657
300.9867
301.0598
301.1723
301.1713
301.0693
300.999
301.0725
301.0753
301.0008
301.0741
301.1676
301.1699
301.0752
301.0018
301.0747
301.0709
301.0005
301.0732
301.1478
301.1548
301.0676
300.9909
301.0629
301.0498
300.9853
301.0569
302.3256
301.2925
301.0434
300.9899
301.0604
302.6782
301.1873
301.2679
301.0957
301.1118
302.7022
301.1807
301.2532
301.0018
300.9649
301.025
301.3466
301.3667
301.3586
301.3303
301.2863
301.3375
301.3591
301.3681
301.3642
301.342
301.3787
301.3337
301.3362
301.3526
301.309
301.3166
301.2999
301.2827
301.3099
301.3815
301.3047
301.2745
301.285
301.2357
301.2646
301.2568
301.2249
301.2976
301.378
301.2978
301.2502
301.2521
301.2111
301.2494
301.2501
301.2097
301.3065
301.3681
301.3098
301.2607
301.2546
301.2231
301.269
301.2789
301.2324
301.3266
301.3802
301.4317
301.2999
301.2937
301.2841
301.3107
301.4209
301.3044
301.2056
301.2177
302.7868
301.2648
301.3693
301.1062
301.0365
301.1299
301.1158
301.1113
301.0064
300.953
301.0126
301.0226
300.9581
301.0182
301.3421
301.3527
301.32
301.3316
301.2929
301.3279
301.3295
301.3005
301.3187
301.2197
301.245
301.2013
301.2252
301.2567
301.2111
301.2016
301.1838
301.1879
301.1675
301.1901
301.1616
301.1608
301.1711
301.1498
301.1535
301.1477
301.1427
301.154
301.1759
301.1552
301.1419
301.1442
301.1318
301.1408
301.1415
301.1304
301.1717
301.1958
301.1859
301.1484
301.1436
301.1373
301.1554
301.1682
301.1433
301.2716
301.2861
301.4191
301.2147
301.1895
301.2024
301.2575
301.4152
301.2475
301.2328
301.2272
301.1135
301.028
301.1227
301.1366
301.035
301.1303
301.1222
301.1214
301.0252
300.9673
301.0275
301.0293
300.9685
301.0286
301.3047
301.3099
301.2689
301.3188
301.2986
301.3173
301.2994
301.261
301.2959
301.1722
301.179
301.1568
301.188
301.2175
301.1857
301.1679
301.1526
301.1656
301.1312
301.1366
301.1263
301.1341
301.1428
301.1325
301.1282
301.1233
301.1264
301.1198
301.1248
301.1203
301.1182
301.1202
301.1167
301.117
301.1173
301.1154
301.13
301.1358
301.1411
301.1219
301.1183
301.1202
301.1267
301.1371
301.1247
301.2314
301.2378
301.4085
301.1785
301.1543
301.1769
301.2268
301.4066
301.2251
301.24
301.2391
301.1404
301.0478
301.1436
301.1464
301.0495
301.1453
301.1182
301.1203
301.0293
300.9685
301.0286
301.0252
300.9673
301.0274
301.3002
301.2967
301.2634
301.3211
301.2982
301.3235
301.3041
301.267
301.3093
301.1683
301.1658
301.1532
301.1927
301.2228
301.2006
301.1721
301.1563
301.1789
301.1284
301.1266
301.1235