/*--------------------------------*- C++ -*----------------------------------*\
| =========                 |                                                 |
| \\      /  F ield         | OpenFOAM: The Open Source CFD Toolbox           |
|  \\    /   O peration     | Version:  2506                                  |
|   \\  /    A nd           | Website:  www.openfoam.com                      |
|    \\/     M anipulation  |                                                 |
\*---------------------------------------------------------------------------*/
FoamFile
{
    version     2.0;
    format      ascii;
    arch        "LSB;label=32;scalar=64";
    class       volScalarField;
    location    "500/airRegion";
    object      epsilon;
}
// * * * * * * * * * * * * * * * * * * * * * * * * * * * * * * * * * * * * * //

dimensions      [0 2 -3 0 0 0 0];

internalField   nonuniform List<scalar> 
85779
(
0.00833801
0.007761724
0.007622899
0.007579273
0.007561062
0.007538953
0.007429408
0.006827196
0.003342993
0.001969718
0.001294044
0.0009195935
0.0007021812
0.0005768925
0.0005095476
0.0004796827
0.0004803636
0.000525914
0.0006407208
0.0008761347
0.001359194
0.002439803
0.005273838
0.007231977
0.007535358
0.007615163
0.007684114
0.007872099
0.008980082
0.02346828
0.007928794
0.006987097
0.006691799
0.006577611
0.006515863
0.006436208
0.00616693
0.004984261
0.002715731
0.001720256
0.001185121
0.0008698606
0.0006790879
0.0005665627
0.0005056935
0.0004787619
0.0004787088
0.0005166713
0.0006145302
0.0008133579
0.001197418
0.001936971
0.003376445
0.005962928
0.006445259
0.006605295
0.006731413
0.006981904
0.008072128
0.0194538
0.007936102
0.006912253
0.00655421
0.006399967
0.006305149
0.00617012
0.005710442
0.003379154
0.002161997
0.001484355
0.001075752
0.0008181717
0.0006546425
0.0005543856
0.0004978462
0.0004706687
0.0004667898
0.0004959984
0.0005795904
0.000752061
0.001080555
0.00169946
0.002930099
0.005689927
0.006225067
0.006425571
0.006586823
0.006866713
0.007960359
0.02009904
0.007986518
0.006955952
0.006578382
0.006404912
0.006285078
0.006090597
0.005433132
0.002996586
0.001928397
0.001353748
0.001004996
0.0007811019
0.000635715
0.0005441244
0.0004902531
0.0004617514
0.0004532317
0.0004736653
0.000545433
0.0007017092
0.001006722
0.001594029
0.002806269
0.005648375
0.006215092
0.006444697
0.006630492
0.006923774
0.008001322
0.02063929
0.00802584
0.007002793
0.006620421
0.006437413
0.006295475
0.00599879
0.004418947
0.002709807
0.001794194
0.001277703
0.0009607112
0.0007558994
0.0006215756
0.0005354005
0.0004827682
0.0004522919
0.0004388177
0.0004506873
0.0005122307
0.0006579832
0.0009530213
0.001533707
0.002755295
0.005650624
0.006245504
0.006499443
0.00670316
0.007001774
0.00805861
0.02102437
0.008051027
0.00703526
0.006651853
0.006463262
0.006307005
0.00597961
0.004699293
0.002617879
0.001716625
0.001227353
0.000929363
0.0007368201
0.0006098381
0.0005271813
0.0004749425
0.0004421699
0.0004236397
0.0004271523
0.0004793327
0.0006171833
0.0009067536
0.001485843
0.002716909
0.005651947
0.006273444
0.006548656
0.006766564
0.007069327
0.008127398
0.02130016
0.008066069
0.007055167
0.00667131
0.006477814
0.006302945
0.005873691
0.003635425
0.002345764
0.001611892
0.001175158
0.0009001014
0.0007194545
0.0005987923
0.0005188954
0.0004666924
0.0004315228
0.0004079244
0.0004032431
0.000446606
0.000577863
0.0008631922
0.001440493
0.002677238
0.005643417
0.006290095
0.006584341
0.006814072
0.007119939
0.008178471
0.02149049
0.008074589
0.007066426
0.006681883
0.006483706
0.006292166
0.005800879
0.003332689
0.002163459
0.001518059
0.001126123
0.000873047
0.0007034586
0.000588316
0.0005106726
0.0004583192
0.0004207294
0.0003920449
0.0003792896
0.0004144127
0.000540057
0.0008214626
0.001395811
0.00263466
0.005625208
0.00629556
0.00660712
0.006847147
0.007155773
0.008214079
0.02162081
0.008079022
0.007071995
0.006686292
0.006484104
0.006282231
0.005762198
0.003238259
0.002086238
0.001467858
0.001094921
0.0008534145
0.0006905578
0.0005790902
0.0005029773
0.0004502883
0.0004102627
0.0003764455
0.0003557523
0.0003834405
0.0005044885
0.0007821643
0.001352504
0.002590568
0.005599596
0.006292099
0.006619541
0.006868786
0.007180184
0.008238316
0.02170899
0.008081081
0.007074236
0.006687146
0.006481444
0.00627202
0.005734548
0.003200254
0.002051625
0.001441328
0.001075681
0.0008396072
0.0006804593
0.0005712631
0.0004961261
0.000442981
0.0004005396
0.0003616225
0.0003333365
0.0003546699
0.000472138
0.0007463178
0.001311981
0.002547039
0.005569151
0.006282346
0.006624334
0.006881901
0.007196147
0.008254388
0.02176743
0.008081939
0.007074879
0.006686469
0.006477574
0.006260957
0.005707545
0.003172939
0.002028408
0.001423064
0.001061724
0.0008290211
0.0006723211
0.0005647
0.0004902271
0.0004365868
0.000391899
0.0003482869
0.0003132727
0.0003294454
0.0004440623
0.0007149478
0.001275731
0.002506204
0.00553247
0.006268488
0.006623954
0.006888985
0.00720606
0.008264678
0.02180502
0.008082363
0.0070751
0.006685609
0.006473266
0.006246085
0.00566509
0.003134675
0.002002302
0.001405437
0.001049427
0.0008201254
0.000665602
0.0005592675
0.0004852843
0.0004312179
0.000384793
0.0003375944
0.0002974103
0.0003093806
0.0004212546
0.000688841
0.00124484
0.002469633
0.005489733
0.006252732
0.006620549
0.006892073
0.007211792
0.008270954
0.02182821
0.008082771
0.007075561
0.006685267
0.006467722
0.006216647
0.005547658
0.003054622
0.001962026
0.001384503
0.001037417
0.000812458
0.0006601668
0.0005549415
0.0004813385
0.0004270725
0.0003798294
0.0003308645
0.0002876477
0.0002959592
0.0004045074
0.0006684586
0.001219839
0.002438836
0.005451799
0.006237848
0.00661596
0.006892781
0.007214762
0.008274509
0.02184158
0.008083099
0.007076005
0.006685154
0.006462646
0.00618318
0.005356822
0.002967287
0.001925619
0.001367417
0.001028288
0.0008069205
0.00065631
0.0005518084
0.0004784326
0.0004242602
0.0003773231
0.0003287931
0.0002850708
0.0002901041
0.0003943211
0.0006538834
0.001200233
0.00241235
0.005417477
0.006224549
0.006611358
0.006892271
0.007216
0.00827626
0.02184838
0.008083205
0.007076092
0.006685023
0.006461134
0.006150439
0.004709446
0.002895253
0.001912625
0.001361977
0.001024858
0.0008044962
0.0006543645
0.0005499729
0.0004765515
0.0004226093
0.0003769035
0.000330913
0.0002893683
0.0002918101
0.0003907722
0.0006446513
0.001183091
0.002378188
0.005359015
0.006207931
0.006606806
0.006891228
0.007216164
0.008276796
0.02185065
0.008083194
0.007076099
0.006685206
0.006461552
0.006163843
0.005111871
0.002926479
0.001918558
0.001364597
0.001026207
0.0008050818
0.0006544131
0.0005495708
0.0004758128
0.0004220311
0.0003778968
0.0003355794
0.0002983213
0.0002998103
0.0003935938
0.0006405579
0.001163651
0.002299214
0.00511762
0.006168928
0.006601153
0.006889956
0.007215583
0.008276408
0.02184943
0.008083076
0.007075966
0.00668541
0.006464156
0.006179891
0.005199164
0.002969936
0.001938861
0.001375062
0.001032045
0.0008084829
0.000656428
0.0005507424
0.0004765176
0.0004228875
0.000380277
0.0003415495
0.0003091162
0.0003117387
0.0004026929
0.0006468883
0.001168473
0.002285847
0.004889631
0.006157071
0.006600563
0.006888942
0.007214266
0.008275083
0.0218447
0.008082911
0.007075833
0.006685909
0.006470501
0.006228519
0.005588706
0.003085237
0.001977263
0.001392244
0.00104144
0.0008142317
0.0006602489
0.000553531
0.0004788865
0.0004255423
0.0003843805
0.0003487537
0.0003207757
0.0003261362
0.0004170673
0.0006632292
0.001199322
0.002392442
0.005350821
0.006209793
0.006606012
0.00688796
0.007211956
0.008272575
0.0218356
0.008082711
0.007075774
0.006686733
0.006475523
0.00625219
0.005682567
0.003148263
0.002010948
0.001410986
0.001052792
0.0008217333
0.0006656558
0.0005578707
0.0004829306
0.0004300728
0.0003903755
0.0003574576
0.0003334384
0.0003425572
0.00043545
0.0006842787
0.001227453
0.002437834
0.005426736
0.006228329
0.006609106
0.006885862
0.007208076
0.008268382
0.0218203
0.008082438
0.007075835
0.006687993
0.006480095
0.006265747
0.00571813
0.003181823
0.002035228
0.001427949
0.001064873
0.0008306148
0.0006725159
0.0005636568
0.0004885153
0.0004363245
0.0003981823
0.000367815
0.0003475203
0.000361174
0.0004576809
0.0007101574
0.001258402
0.002474887
0.005465821
0.006241848
0.006610901
0.006881736
0.007201692
0.00826165
0.02179578
0.008081633
0.007075283
0.00668879
0.006484052
0.006276668
0.0057452
0.0032151
0.002062188
0.001448037
0.001079719
0.0008416875
0.000681066
0.0005708365
0.0004954291
0.0004440111
0.0004075575
0.0003798035
0.0003633395
0.0003822851
0.0004838601
0.0007412225
0.001294733
0.002516039
0.005507278
0.006255237
0.006610582
0.006874148
0.007191444
0.008251118
0.02175754
0.008079534
0.007072953
0.00668776
0.006486418
0.006287243
0.005781129
0.003313545
0.002122345
0.001483346
0.001102129
0.0008567726
0.0006918573
0.0005793989
0.0005034026
0.0004527534
0.0004181377
0.000393231
0.0003810066
0.000406052
0.0005139449
0.0007772742
0.001336456
0.002561928
0.005551199
0.006266866
0.006606136
0.006861091
0.007175469
0.008235025
0.02169916
0.008075009
0.007067194
0.006683004
0.006485658
0.006301287
0.00586516
0.003825884
0.002310734
0.001558782
0.001139338
0.0008780306
0.0007053892
0.000589235
0.0005120762
0.0004620862
0.0004294558
0.0004077489
0.0004004043
0.0004323909
0.0005476244
0.0008176359
0.001382432
0.002610145
0.005586517
0.006273179
0.00659488
0.006840006
0.007151344
0.00821097
0.02161174
0.008066408
0.007055792
0.006672208
0.006479234
0.006308348
0.005907778
0.003841777
0.002424044
0.001637106
0.001184284
0.0009037502
0.0007209656
0.0005998477
0.0005209562
0.0004714781
0.0004409735
0.0004228852
0.0004212078
0.00046096
0.0005843243
0.0008613043
0.001431021
0.002658171
0.00561168
0.00627126
0.006573898
0.006807887
0.007116042
0.008175711
0.02148272
0.008051282
0.007035745
0.006652548
0.00646424
0.006309269
0.005989816
0.004736572
0.002638309
0.001725207
0.001230853
0.0009306325
0.0007372688
0.0006106131
0.0005295603
0.0004804276
0.0004521591
0.000438115
0.0004429563
0.0004912626
0.0006234382
0.0009074827
0.001481
0.002704065
0.005627663
0.006258798
0.006540469
0.006761625
0.007066142
0.008125135
0.02129404
0.008025998
0.0070031
0.006620831
0.006437974
0.006297281
0.006008008
0.004450615
0.002728543
0.001800951
0.001279079
0.0009602093
0.0007551915
0.0006218228
0.0005378092
0.0004886497
0.0004626119
0.0004529678
0.0004651748
0.0005228844
0.000664885
0.0009568184
0.00153376
0.002748864
0.005633973
0.006235318
0.006493741
0.006699633
0.006999445
0.008057349
0.0210202
0.007986576
0.006956066
0.006578464
0.006405088
0.006287903
0.00610983
0.005515462
0.003044983
0.001943924
0.001355959
0.001003341
0.0007791915
0.0006352143
0.000546296
0.0004962459
0.0004721781
0.0004671155
0.0004874885
0.0005557921
0.0007100006
0.001013869
0.001598933
0.002805997
0.005638939
0.00620921
0.006441439
0.006628369
0.006922269
0.008000619
0.02063677
0.007936097
0.006912263
0.006554161
0.006399802
0.006305638
0.006176012
0.005736285
0.003430069
0.002178212
0.001484021
0.001071447
0.000814363
0.0006530068
0.0005560385
0.0005036826
0.00048096
0.0004803576
0.0005095839
0.0005904033
0.000762367
0.00109128
0.001708944
0.002935069
0.005686569
0.006222858
0.006424395
0.006585905
0.006865904
0.00795994
0.0200978
0.007928768
0.006987065
0.006691712
0.006577371
0.006515619
0.006438902
0.006197775
0.005272503
0.002804082
0.001723171
0.001176217
0.0008628586
0.000675789
0.0005674469
0.0005111455
0.0004886639
0.0004918064
0.0005301813
0.0006262175
0.0008261462
0.0012121
0.001950838
0.003384399
0.005963794
0.006445652
0.006605544
0.006731319
0.006981596
0.00807193
0.01945334
0.008337991
0.007761691
0.007622822
0.007579087
0.00756074
0.007539185
0.007437344
0.006914174
0.004154142
0.00203582
0.00128515
0.0009096074
0.0006972163
0.000576851
0.0005143299
0.0004890103
0.0004931012
0.0005395671
0.0006533734
0.0008913458
0.001378092
0.002458505
0.005279643
0.007234846
0.007537145
0.007616086
0.007684436
0.007872104
0.008980055
0.02346826
0.0079288
0.006987116
0.006691836
0.006577655
0.006515853
0.006435921
0.006153426
0.004562542
0.002691238
0.001718288
0.001184376
0.0008694957
0.0006790129
0.0005666597
0.0005059079
0.0004790895
0.0004791064
0.0005169928
0.0006146839
0.0008133703
0.001197206
0.00193632
0.003375276
0.005961322
0.006444327
0.006604784
0.006731144
0.006981769
0.008072073
0.01945365
0.007246925
0.005588003
0.004912086
0.004599073
0.004410628
0.004217911
0.003874387
0.003106696
0.00215411
0.001505474
0.001090826
0.000825642
0.0006580108
0.0005570152
0.000502145
0.0004779186
0.0004770648
0.0005075273
0.0005887631
0.0007551986
0.00106668
0.001613812
0.002504461
0.003683315
0.00422558
0.004494511
0.004689034
0.004943614
0.005582468
0.00843227
0.007200253
0.005339554
0.004487113
0.004052914
0.003777446
0.003513473
0.00313189
0.002415564
0.001782383
0.001319394
0.0009981761
0.0007799355
0.0006356942
0.0005455347
0.0004943924
0.0004696099
0.000464833
0.0004866436
0.0005533662
0.0006935307
0.0009524576
0.001392009
0.002082234
0.003007088
0.003529465
0.003830755
0.004057941
0.004326772
0.004910971
0.007447439
0.007249185
0.005353759
0.004435975
0.00394033
0.00360747
0.003281175
0.002840084
0.002143697
0.001598376
0.001208797
0.000935659
0.0007463134
0.0006182261
0.0005358684
0.000486953
0.0004605937
0.0004511074
0.0004642153
0.000518496
0.0006406954
0.0008720295
0.001270083
0.001909794
0.002809109
0.003351982
0.003688645
0.003955823
0.004270879
0.004946267
0.008053835
0.007294587
0.005405112
0.004466952
0.00394228
0.003571904
0.003190814
0.002644257
0.001999012
0.001499546
0.001144675
0.0008962408
0.0007233387
0.0006051778
0.0005276551
0.0004796067
0.0004510251
0.0004365021
0.0004411044
0.0004846108
0.0005947228
0.0008126902
0.001197811
0.001833829
0.002757881
0.003340328
0.003715778
0.004019584
0.004371502
0.005115201
0.008700415
0.007324535
0.00544563
0.004501611
0.003962386
0.003568196
0.003154393
0.002575419
0.001922869
0.001440148
0.00110318
0.0008690369
0.0007062827
0.0005944574
0.0005198992
0.0004718718
0.0004407329
0.0004210315
0.0004172935
0.000451092
0.0005524889
0.000763483
0.001145218
0.001788547
0.002744079
0.003367986
0.003778997
0.004111376
0.004486091
0.005268799
0.009178017
0.007342228
0.005470858
0.004524494
0.003975591
0.003561193
0.003111032
0.002432999
0.001830346
0.001382364
0.001066557
0.0008457934
0.0006914725
0.0005845452
0.0005120737
0.0004636899
0.0004298779
0.0004049155
0.0003929036
0.0004177393
0.0005124247
0.000719035
0.00109945
0.001749813
0.002731299
0.003392729
0.003834577
0.004189078
0.004577788
0.005381223
0.009508893
0.007351917
0.005484656
0.004536317
0.003979512
0.003547639
0.003069411
0.002336188
0.001750858
0.00132992
0.001033678
0.0008251565
0.0006781162
0.0005751848
0.0005043014
0.0004554155
0.0004188991
0.0003885361
0.0003682054
0.0003848334
0.0004743248
0.0006776516
0.00105637
0.001710527
0.002709485
0.003403784
0.003872544
0.004245112
0.00464353
0.005458584
0.009733931
0.007356714
0.005491101
0.004540665
0.003977741
0.003534294
0.003042036
0.002289922
0.001707215
0.001296844
0.001010488
0.0008092015
0.0006669224
0.0005667755
0.0004970166
0.0004475689
0.0004083195
0.0003723154
0.0003435913
0.0003530129
0.0004387238
0.0006393559
0.001015446
0.001669731
0.002676536
0.003401095
0.00389387
0.004281958
0.004688083
0.005510316
0.009885097
0.007358705
0.005493263
0.004540623
0.003972707
0.00352108
0.003021788
0.002264223
0.001682144
0.001275963
0.0009943453
0.0007970722
0.000657754
0.0005595045
0.0004905563
0.0004405424
0.0003985313
0.0003566806
0.0003197534
0.0003232972
0.000406489
0.0006047881
0.0009775251
0.001629241
0.002636201
0.003388201
0.003902409
0.004304117
0.004716879
0.005543983
0.009984737
0.007359242
0.005493243
0.004538385
0.003965873
0.003506159
0.003002317
0.002243607
0.001663267
0.001260234
0.0009818729
0.0007873821
0.0006501843
0.000553344
0.0004849943
0.0004344094
0.0003897488
0.000342337
0.0002981358
0.0002972139
0.0003786259
0.0005746805
0.000943775
0.001591897
0.002597048
0.003369734
0.003902335
0.004315886
0.004734482
0.005565118
0.01004858
0.007359176
0.005492386
0.004535301
0.003957776
0.00348815
0.002975395
0.002218722
0.001643867
0.001245771
0.0009711321
0.0007793027
0.0006439236
0.0005481943
0.0004802423
0.000429127
0.0003823814
0.0003307346
0.0002811048
0.0002766545
0.0003561269
0.0005496574
0.0009151576
0.001560053
0.002566338
0.003349808
0.003897306
0.00432083
0.004744442
0.005577714
0.0100878
0.007358984
0.005491449
0.00453206
0.003947877
0.003462056
0.002923711
0.002179626
0.001619747
0.001230953
0.000961534
0.000772645
0.0006389196
0.000544036
0.0004763331
0.0004249417
0.0003772614
0.0003236667
0.0002710556
0.0002633106
0.0003398148
0.0005301403
0.0008919853
0.001533589
0.002539881
0.003330681
0.003890131
0.004321709
0.004749422
0.005584646
0.01011037
0.007358843
0.005490796
0.0045297
0.003940156
0.003439689
0.002871171
0.002144911
0.001600128
0.001219634
0.0009545722
0.0007679594
0.0006353616
0.0005409331
0.0004733358
0.0004220569
0.0003748777
0.0003220667
0.0002693007
0.0002582262
0.0003302898
0.0005163842
0.0008741599
0.001511787
0.002516446
0.003313603
0.003882732
0.004320507
0.004751326
0.005587912
0.01012178
0.007358798
0.005490574
0.004529023
0.00393863
0.003434641
0.002836493
0.002133566
0.001594351
0.001215725
0.0009517755
0.0007658165
0.000633463
0.0005389596
0.0004711948
0.0004201817
0.000374672
0.0003253027
0.0002754576
0.0002614233
0.0003277864
0.0005084388
0.0008608296
0.001490993
0.002487706
0.003296857
0.003875892
0.004318461
0.004751379
0.005588792
0.01012555
0.007358892
0.005490802
0.004529538
0.003939618
0.003435275
0.002849463
0.002138512
0.00159746
0.001217636
0.0009528346
0.0007662493
0.0006333579
0.000538304
0.0004700449
0.0004190946
0.0003755408
0.0003309907
0.0002866584
0.0002714127
0.0003320147
0.000506595
0.0008516814
0.001465009
0.002427943
0.003275152
0.00386976
0.004316262
0.004750211
0.00558791
0.01012342
0.007359128
0.005491483
0.004531361
0.003944544
0.00344788
0.002876007
0.002157921
0.00160956
0.001225089
0.0009574605
0.0007691216
0.0006350883
0.0005392133
0.000470377
0.0004194571
0.0003776333
0.0003374877
0.0002991151
0.0002851417
0.0003421725
0.0005129269
0.0008562687
0.00146811
0.002417939
0.0032755
0.003869378
0.004314577
0.004747885
0.005585239
0.01011544
0.00735949
0.005492563
0.004534309
0.003952993
0.00347393
0.002945035
0.002195575
0.001629634
0.00123696
0.0009649766
0.000774112
0.0006385684
0.0005417999
0.0004725426
0.0004218676
0.0003815917
0.0003449502
0.0003117032
0.0003007105
0.0003569094
0.0005269302
0.0008742784
0.001502379
0.002493942
0.003299882
0.003874043
0.004312878
0.004743914
0.005580259
0.01010011
0.007359889
0.005493878
0.004537911
0.003962437
0.003496744
0.002986742
0.002228541
0.001651318
0.001251049
0.0009744627
0.0007808219
0.0006436302
0.0005459974
0.0004765381
0.0004263983
0.0003876538
0.000353863
0.0003248102
0.0003177044
0.0003752572
0.0005462187
0.000896631
0.001530592
0.002527194
0.003317309
0.003878115
0.004309562
0.004737211
0.005571892
0.01007429
0.007360097
0.005494995
0.004541286
0.003970595
0.003513907
0.003010779
0.00225154
0.001669922
0.001265246
0.0009851695
0.0007889958
0.000650141
0.0005516606
0.0004821595
0.0004328028
0.000395683
0.0003644575
0.0003390752
0.0003364386
0.0003970658
0.0005704553
0.0009237843
0.001560194
0.002554234
0.003333523
0.00388047
0.004302813
0.004726011
0.00555827
0.01003276
0.007359611
0.005495103
0.004543619
0.00397745
0.003528255
0.003030241
0.002273623
0.001690095
0.00128178
0.0009981249
0.0007990406
0.0006581653
0.0005586472
0.0004891229
0.0004407164
0.0004053766
0.0003767287
0.0003549487
0.000357356
0.0004224808
0.0005997008
0.000956443
0.001594396
0.002583262
0.003349043
0.003879045
0.004290093
0.004707756
0.005536601
0.009967775
0.007357582
0.00549286
0.004543545
0.003982414
0.003541898
0.003053276
0.002310947
0.001722095
0.001305826
0.001015704
0.0008119036
0.0006679338
0.0005668203
0.0004970916
0.0004497048
0.0004163279
0.0003904809
0.0003726101
0.0003807399
0.0004515826
0.0006338131
0.0009944596
0.001633283
0.002614335
0.003361215
0.003870522
0.004267926
0.004678924
0.00550291
0.009868195
0.007352679
0.005486212
0.004538907
0.003984003
0.003556724
0.003090053
0.002409236
0.001787069
0.001345587
0.001040978
0.0008286121
0.0006796204
0.0005759664
0.0005056552
0.000459261
0.0004280338
0.000405348
0.0003919709
0.0004066076
0.0004842408
0.0006723912
0.001037195
0.001676211
0.002649372
0.00336651
0.003850775
0.004231972
0.004634914
0.005451625
0.009718232
0.007342858
0.005472156
0.004526648
0.003979232
0.003568026
0.003124776
0.002473772
0.001853769
0.001393728
0.001072234
0.0008485851
0.000692832
0.0005856689
0.0005143196
0.0004688222
0.0004399165
0.0004208254
0.0004127098
0.00043471
0.0005201246
0.0007148918
0.001083661
0.001720915
0.002681826
0.003360707
0.003815651
0.004177561
0.004570184
0.005375095
0.009495312
0.007325017
0.005446636
0.004503266
0.003965032
0.003572473
0.003161054
0.002588248
0.00193233
0.00144566
0.001106091
0.0008703977
0.0007069895
0.0005955339
0.0005226442
0.0004778644
0.000451402
0.0004363446
0.0004343527
0.00046464
0.0005589304
0.0007611944
0.00113379
0.001766485
0.002706557
0.00334241
0.003763678
0.004101961
0.004479816
0.005263766
0.009167118
0.007294911
0.005405814
0.004468117
0.003944162
0.003575218
0.003196928
0.002656422
0.002007476
0.001503454
0.001145881
0.0008962336
0.0007231811
0.0006059194
0.0005305607
0.0004860843
0.0004620557
0.0004513951
0.0004564108
0.0004960672
0.0006009008
0.0008128446
0.001191195
0.001818884
0.002731241
0.003321384
0.003704312
0.004012446
0.004366681
0.00511142
0.008692392
0.00724936
0.005354179
0.004436718
0.003941744
0.003611278
0.003292888
0.002868861
0.002161425
0.001604789
0.001209572
0.0009344939
0.0007451415
0.0006183734
0.0005386309
0.0004935847
0.0004717217
0.0004656406
0.0004785175
0.0005290147
0.0006475539
0.0008751084
0.001268372
0.001901581
0.002791724
0.003339129
0.003680781
0.003950811
0.004267382
0.004943514
0.008048401
0.007200314
0.005339755
0.004487489
0.004053562
0.003778994
0.003518224
0.003143582
0.002430567
0.001787798
0.001318413
0.0009951817
0.0007773165
0.0006349209
0.0005478678
0.0005008844
0.0004805652
0.0004789454
0.0005004218
0.0005638437
0.0007019314
0.0009589766
0.001395218
0.002080001
0.002997047
0.003521698
0.003825949
0.00405473
0.004324365
0.00490898
0.007444013
0.007246924
0.005588068
0.004912217
0.004599236
0.004410988
0.004219828
0.00388464
0.003161951
0.002169973
0.001503081
0.001084937
0.0008209065
0.0006559866
0.000558707
0.0005082625
0.0004884243
0.0004905751
0.0005209601
0.0005997156
0.0007658037
0.001077321
0.00162237
0.002507605
0.003678271
0.004222066
0.004492418
0.004687466
0.004942246
0.00558125
0.008430225
0.007928771
0.006987075
0.006691734
0.006577393
0.006515451
0.006436598
0.006174488
0.005025769
0.002774084
0.001721709
0.00117639
0.0008628579
0.000675812
0.000567571
0.0005113656
0.0004889504
0.0004920993
0.000530383
0.0006262745
0.0008261431
0.001212091
0.001950719
0.003384092
0.005963218
0.006445281
0.006605293
0.00673115
0.006981484
0.008071865
0.01945321
0.007936112
0.006912296
0.006554304
0.006400129
0.006305473
0.006173093
0.005758707
0.00420061
0.002264157
0.00149571
0.001075999
0.0008177554
0.0006545939
0.0005545986
0.0004982365
0.0004712543
0.0004675417
0.0004967027
0.000580015
0.0007520734
0.00107988
0.001697799
0.002927304
0.005686314
0.006222888
0.006424411
0.00658623
0.006866422
0.007960247
0.0200988
0.007200258
0.005339579
0.004487167
0.004052987
0.003777489
0.003513778
0.003137574
0.002466027
0.001793879
0.001320616
0.000997878
0.0007797363
0.0006356878
0.0005456264
0.0004945373
0.0004698246
0.0004651481
0.0004870531
0.0005537485
0.000693639
0.0009520129
0.001390884
0.002080392
0.003004183
0.003527365
0.003829542
0.004057279
0.004326409
0.004910744
0.007447075
0.007133536
0.005018921
0.003923241
0.003316481
0.002930095
0.002617148
0.002295513
0.001889529
0.001492294
0.001166305
0.0009191277
0.0007400294
0.0006158308
0.0005348919
0.0004865694
0.0004607343
0.0004519768
0.0004654823
0.0005174399
0.0006296921
0.0008308358
0.001147712
0.001588119
0.00209459
0.002494732
0.002771488
0.002977776
0.003168268
0.003434667
0.004244989
0.007177688
0.005013245
0.003822756
0.003128635
0.002676062
0.002325328
0.002001376
0.001654772
0.001335902
0.001071286
0.0008648692
0.0007106784
0.000600454
0.0005260485
0.0004791591
0.0004512885
0.0004377488
0.0004428129
0.0004819333
0.0005741566
0.0007413054
0.001000578
0.001354043
0.001763069
0.002121092
0.002391097
0.002601746
0.002793374
0.003046765
0.003802301
0.007222124
0.005060806
0.003839071
0.003105355
0.002614643
0.002233706
0.00188857
0.001553025
0.001258458
0.00101838
0.0008315603
0.0006910502
0.0005891411
0.0005185631
0.0004718906
0.0004414299
0.0004228095
0.0004195797
0.0004475869
0.0005261562
0.0006755776
0.0009123521
0.00124292
0.001640869
0.002008563
0.002300709
0.002541145
0.002772793
0.003100701
0.004093623
0.0072517
0.005100814
0.003869539
0.003117978
0.002605716
0.002205005
0.001843177
0.001504756
0.001217089
0.0009872167
0.0008100675
0.00067705
0.000579929
0.0005113942
0.0004641931
0.0004308706
0.000406991
0.0003955129
0.0004136275
0.0004827706
0.0006233714
0.0008531257
0.001183298
0.001594889
0.001990976
0.002315606
0.002589768
0.002859522
0.003251207
0.004466886
0.007268995
0.00512572
0.003890933
0.00312985
0.002603594
0.002188246
0.001807912
0.001468468
0.00118649
0.0009639078
0.0007933651
0.0006653717
0.000571398
0.000504057
0.0004560548
0.0004198012
0.0003904622
0.0003705932
0.0003797268
0.0004422223
0.0005784076
0.0008067737
0.00114234
0.001571294
0.001997885
0.002353876
0.00265642
0.00295293
0.003384646
0.004763742
0.007278228
0.005139023
0.003902037
0.003134573
0.002597941
0.002172241
0.001778236
0.001437468
0.001160561
0.0009442175
0.0007789843
0.0006548378
0.0005632127
0.0004967368
0.0004479595
0.000408767
0.0003735849
0.0003449642
0.0003460664
0.0004040476
0.0005379831
0.0007663049
0.001106779
0.001549441
0.002003084
0.002386085
0.002711109
0.003025782
0.003481595
0.004974273
0.007282585
0.005144958
0.00390604
0.00313395
0.002590049
0.002158773
0.001758293
0.001416092
0.001141545
0.0009288229
0.0007670101
0.0006455279
0.0005556621
0.0004899536
0.0004405882
0.0003983944
0.000356703
0.0003188724
0.000313243
0.0003686083
0.0005014229
0.0007295123
0.001072799
0.001524365
0.001999895
0.002405505
0.002748594
0.00307634
0.003547265
0.005117444
0.007284172
0.005146669
0.003905914
0.003130262
0.002581293
0.002147069
0.001743741
0.001400742
0.00112736
0.0009167215
0.0007570966
0.0006374949
0.0005490398
0.0004841225
0.0004343874
0.0003890223
0.0003400516
0.0002929473
0.0002823651
0.0003366951
0.0004689016
0.0006962381
0.001040695
0.001498634
0.001989208
0.002413401
0.002771307
0.003109085
0.003590006
0.005212102
0.007284332
0.005146243
0.003903754
0.003125192
0.00257313
0.002136153
0.001731233
0.001388122
0.001115805
0.0009067693
0.0007488054
0.0006306777
0.0005434004
0.0004791977
0.0004291285
0.000380507
0.0003242188
0.000268979
0.0002552615
0.0003093045
0.000440808
0.000666824
0.001011199
0.001473028
0.001973866
0.002413121
0.00278321
0.00312895
0.003616737
0.005272726
0.007283904
0.005144989
0.003900867
0.003119527
0.002564371
0.002124015
0.001718325
0.001376228
0.001105616
0.0008983308
0.0007418904
0.0006249798
0.0005385812
0.0004747848
0.0004242447
0.0003729624
0.0003111935
0.0002502385
0.0002342108
0.0002874197
0.0004175562
0.0006417908
0.0009854416
0.001449778
0.001956946
0.002408041
0.002787958
0.003140019
0.003632589
0.005309892
0.007283373
0.005143675
0.003898028
0.003113709
0.002554493
0.002108346
0.001703331
0.001364243
0.00109649
0.0008913401
0.0007363621
0.0006203891
0.0005345118
0.0004708552
0.0004200347
0.0003676676
0.000303644
0.0002398196
0.0002210599
0.0002718218
0.0003995275
0.0006215453
0.0009639912
0.001429562
0.001940674
0.002400869
0.002788455
0.003145387
0.003641243
0.00533118
0.007282983
0.005142737
0.003895997
0.003109424
0.002546895
0.002095421
0.001691511
0.001355242
0.001089943
0.0008864817
0.0007325127
0.0006170188
0.000531246
0.0004675521
0.000416944
0.0003655008
0.0003028937
0.0002392731
0.0002169062
0.0002631559
0.0003871136
0.0006063743
0.0009470845
0.001412795
0.001926514
0.002393544
0.002786816
0.003147266
0.003645251
0.005341854
0.007282841
0.005142392
0.003895279
0.003108086
0.002544693
0.002091286
0.001687932
0.001352169
0.001087418
0.0008844036
0.0007306289
0.0006150138
0.0005288395
0.00046473
0.0004144104
0.0003655337
0.0003080636
0.0002481682
0.0002218393
0.00026179
0.0003806639
0.0005964145
0.0009343718
0.001398619
0.001914825
0.002387203
0.002784409
0.003147092
0.003646244
0.005345292
0.007282986
0.005142678
0.003895762
0.003108892
0.002545952
0.002093335
0.001689929
0.001353835
0.001088613
0.0008851129
0.0007308301
0.0006145921
0.0005275895
0.0004625378
0.0004118531
0.0003656766
0.0003153754
0.0002627438
0.0002341228
0.0002673787
0.0003804953
0.000592207
0.0009260029
0.001385629
0.001905832
0.002382672
0.00278205
0.00314562
0.003645037
0.005343202
0.007283416
0.005143588
0.003897454
0.003112052
0.002551089
0.002101338
0.00169763
0.00136004
0.001093243
0.0008884218
0.0007330805
0.0006159244
0.0005279807
0.0004619387
0.0004107733
0.0003666297
0.0003224122
0.000277559
0.0002499887
0.0002786776
0.000387097
0.00059637
0.0009292151
0.001387658
0.001906852
0.002382162
0.002780241
0.003142963
0.003641661
0.005335674
0.007284079
0.005145015
0.003900143
0.003117133
0.002559532
0.002115615
0.001710256
0.001369876
0.001100646
0.0008939384
0.0007372002
0.0006190118
0.0005302606
0.0004636057
0.0004123884
0.000369877
0.0003299701
0.0002913172
0.0002668581
0.0002939096
0.0003998834
0.00060877
0.0009437385
0.001404978
0.00191714
0.00238509
0.002778459
0.003138552
0.003635441
0.00532125
0.007284836
0.005146722
0.003903431
0.003123254
0.002569163
0.0021299
0.001724315
0.001381611
0.001109906
0.0009011757
0.0007429358
0.0006237126
0.0005343376
0.0004674855
0.0004167021
0.0003757357
0.0003389597
0.0003048938
0.0002843921
0.0003121714
0.0004176648
0.0006268251
0.0009626165
0.001422887
0.001929374
0.002388607
0.002775172
0.003131092
0.003624942
0.005296851
0.007285413
0.00514823
0.003906606
0.003129156
0.002577992