/*--------------------------------*- C++ -*----------------------------------*\
| =========                 |                                                 |
| \\      /  F ield         | OpenFOAM: The Open Source CFD Toolbox           |
|  \\    /   O peration     | Version:  2506                                  |
|   \\  /    A nd           | Website:  www.openfoam.com                      |
|    \\/     M anipulation  |                                                 |
\*---------------------------------------------------------------------------*/
FoamFile
{
    version     2.0;
    format      ascii;
    arch        "LSB;label=32;scalar=64";
    class       volScalarField;
    location    "500/airRegion";
    object      k;
}
// * * * * * * * * * * * * * * * * * * * * * * * * * * * * * * * * * * * * * //

dimensions      [0 2 -2 0 0 0 0];

internalField   nonuniform List<scalar> 
85779
(
0.0924121
0.08934053
0.08844195
0.08807848
0.08785357
0.08751306
0.08629151
0.08081862
0.0525584
0.0388658
0.03102215
0.02620033
0.02328241
0.02171774
0.02110984
0.02105487
0.0212484
0.02167165
0.0227187
0.02534038
0.0310726
0.04282496
0.06841834
0.08430407
0.08711849
0.08779595
0.08801023
0.08782204
0.08604486
0.07249502
0.0901674
0.08487191
0.08289238
0.08194984
0.08129536
0.0803548
0.07763685
0.06745241
0.04731919
0.03665089
0.03003935
0.02575641
0.02308016
0.0216253
0.02106777
0.0210303
0.02119733
0.02149755
0.02230465
0.02451702
0.02931955
0.0381595
0.05310187
0.07501712
0.07956891
0.08089079
0.08131447
0.08099171
0.0785961
0.06397206
0.09012249
0.08421401
0.08174247
0.08045116
0.07948284
0.07802675
0.07368418
0.05436931
0.04220518
0.03430291
0.02892245
0.02523967
0.02284276
0.02148153
0.02090396
0.0207836
0.02083635
0.02099323
0.02161049
0.0235036
0.02767932
0.03528078
0.04837769
0.07224171
0.0772887
0.0789036
0.0795625
0.07955068
0.07791809
0.0653789
0.09038629
0.08437261
0.08171173
0.08023342
0.07903002
0.07705715
0.07112485
0.05046093
0.03958809
0.03274983
0.02805919
0.02478886
0.02260641
0.02131249
0.02069347
0.02046269
0.0203713
0.02036633
0.0208047
0.02247176
0.02633713
0.0335596
0.0465084
0.07139634
0.07670105
0.07852588
0.0794128
0.07970702
0.07857398
0.06654528
0.09061676
0.08462511
0.08189659
0.08031414
0.07890218
0.07607011
0.063225
0.04762175
0.03795827
0.03171496
0.02741832
0.02440732
0.0223679
0.02111021
0.02043384
0.02007805
0.01982593
0.01964769
0.01991919
0.02143845
0.02518696
0.03236782
0.04551323
0.07110042
0.076634
0.07864664
0.07972161
0.0802196
0.07931714
0.06737044
0.09077243
0.08481892
0.08206396
0.08041771
0.07886606
0.07574691
0.06493062
0.04637706
0.03688963
0.03095995
0.02691069
0.02407028
0.02212284
0.02087453
0.02012618
0.01963339
0.01920803
0.01884977
0.01896885
0.02040098
0.02414137
0.03140602
0.0448011
0.07093289
0.07669057
0.07887407
0.08009549
0.08071556
0.07988267
0.06795835
0.09086797
0.08494304
0.0821734
0.08047343
0.07874495
0.07473145
0.056312
0.04381875
0.03570855
0.03026755
0.02646383
0.0237612
0.02187538
0.02061549
0.01978117
0.01913925
0.01852919
0.01798647
0.01796964
0.01936299
0.02315724
0.03054837
0.04417853
0.07076511
0.07673955
0.07907724
0.08041385
0.08111053
0.08029456
0.06836262
0.09092263
0.08501397
0.08223192
0.08048451
0.07860425
0.07404702
0.05355993
0.04203146
0.03469154
0.02966241
0.026074
0.02348146
0.02163441
0.02034674
0.01941452
0.01861208
0.01780674
0.01707665
0.01694305
0.01833838
0.02222273
0.02974925
0.04358461
0.07056315
0.07674361
0.07922062
0.08065101
0.0814004
0.08058475
0.06863875
0.09095096
0.08504834
0.08225337
0.08046882
0.07849562
0.07367757
0.0525507
0.04114115
0.03406044
0.02922697
0.02576244
0.02323779
0.02140837
0.02008188
0.01904458
0.01807407
0.01706625
0.01614889
0.01592039
0.01735131
0.02134486
0.02899955
0.0430066
0.07032481
0.07669957
0.07930319
0.08081279
0.08160233
0.0807838
0.06882529
0.09096376
0.08506088
0.08225295
0.08043811
0.07840056
0.07343256
0.05210241
0.0406844
0.03367733
0.02892281
0.02551991
0.02303188
0.0212058
0.01983574
0.01869325
0.01755559
0.01634702
0.01524929
0.01494808
0.01643612
0.02054183
0.0283081
0.04245248
0.07005994
0.07661708
0.07933588
0.08091397
0.08173659
0.08091642
0.06894878
0.09096859
0.08506273
0.08224274
0.08040024
0.07830179
0.07320416
0.05178909
0.04037515
0.03340681
0.02869588
0.02532941
0.02286301
0.02103422
0.01962301
0.01838585
0.01709807
0.01570828
0.01444898
0.01409083
0.01563581
0.01983767
0.0276921
0.04193984
0.06975593
0.07650763
0.07933265
0.08097042
0.08182131
0.08100167
0.06902817
0.09097049
0.08506154
0.08223049
0.08035576
0.07816519
0.07284944
0.05139725
0.04006902
0.03317322
0.02851273
0.02517943
0.02273018
0.02089866
0.01945594
0.01814856
0.01675048
0.01522465
0.01383789
0.01342471
0.01499659
0.01925686
0.02716845
0.04148463
0.06941269
0.07638503
0.07930736
0.08099632
0.08187126
0.08105388
0.06907709
0.09097223
0.08506171
0.08222026
0.0802964
0.07791001
0.0719617
0.05070395
0.03968345
0.03294586
0.02836138
0.02506535
0.0226323
0.02080105
0.0193423
0.0180012
0.01655302
0.01496211
0.01349921
0.01301961
0.01456032
0.01882058
0.02674929
0.04110057
0.06910575
0.07626793
0.07927246
0.08100328
0.08189781
0.08108359
0.0691053
0.09097367
0.0850624
0.08221296
0.08024168
0.07761896
0.07051247
0.0499701
0.03935034
0.03277155
0.0282543
0.02498822
0.02256768
0.02074061
0.01928473
0.01795319
0.01652647
0.01495734
0.01348339
0.012922
0.01435825
0.01854473
0.02643662
0.04077268
0.06881625
0.0761567
0.07923498
0.08099962
0.08190921
0.08109829
0.06911963
0.0909741
0.08506217
0.08220985
0.08022146
0.07732154
0.06564562
0.04937185
0.03921356
0.03270375
0.02820747
0.02495107
0.02253585
0.02071665
0.01928297
0.01800413
0.01666942
0.0152079
0.01379045
0.01313874
0.01440277
0.01843706
0.02621237
0.04039371
0.06830447
0.07600188
0.07919249
0.08099008
0.08191076
0.08110276
0.06912445
0.09097418
0.08506264
0.08221205
0.08022648
0.07744182
0.0686686
0.049623
0.03927013
0.03272858
0.02821857
0.0249546
0.02253803
0.02072985
0.01933389
0.01813943
0.0169441
0.01564554
0.01433923
0.01361762
0.01467734
0.0185012
0.02605788
0.03969473
0.06639617
0.07565299
0.07913542
0.08097721
0.08190531
0.08109943
0.06912187
0.09097395
0.08506335
0.08221767
0.08025681
0.07759257
0.06938426
0.05001532
0.03946893
0.03283878
0.02828471
0.02499837
0.02257508
0.02077975
0.01942975
0.01833285
0.01729117
0.01616848
0.0149934
0.01424147
0.0151246
0.01875714
0.02619299
0.03961549
0.06460284
0.07554363
0.07912872
0.0809687
0.08189383
0.08108838
0.0691119
0.09097368
0.08506493
0.08222793
0.08032399
0.07800947
0.07225258
0.05096883
0.03982897
0.03302315
0.02839946
0.02508083
0.02264746
0.02086582
0.01956463
0.01856583
0.01767134
0.01671343
0.01566742
0.01492422
0.01568453
0.01917839
0.02662862
0.04062447
0.06824364
0.07601491
0.07918503
0.08096286
0.08187413
0.08106756
0.06909268
0.09097332
0.08506735
0.0822406
0.08037679
0.07822041
0.07299249
0.05153717
0.04016956
0.03324038
0.02855215
0.02520008
0.02275542
0.0209874
0.01973473
0.01882946
0.01806937
0.01725846
0.01633051
0.01562608
0.01631885
0.01970698
0.02710804
0.04116708
0.06892127
0.07618951
0.07921594
0.08094685
0.08184063
0.08103274
0.0690604
0.09097242
0.08507035
0.08225504
0.08042099
0.07834185
0.07329003
0.0518898
0.04046392
0.03347358
0.02873911
0.02535639
0.02289907
0.0211431
0.01993703
0.01911983
0.0184822
0.01780266
0.01698205
0.01633731
0.01700909
0.02032423
0.0276524
0.04164256
0.06925994
0.07630413
0.07923175
0.0809137
0.0817856
0.08097685
0.06900863
0.09096792
0.08506908
0.08226591
0.08045903
0.07843918
0.07352309
0.05227106
0.04081756
0.03376697
0.02897838
0.02555571
0.02307829
0.02132966
0.02016698
0.01943319
0.01890929
0.01835045
0.01763072
0.01706149
0.0177493
0.02102228
0.02827642
0.0421643
0.06960421
0.07641267
0.07923043
0.08085345
0.0816981
0.08088963
0.06892783
0.09095486
0.08505594
0.08226523
0.08048861
0.07854295
0.07385891
0.05328442
0.04151693
0.03423261
0.02931153
0.0258105
0.02329317
0.0215419
0.0204176
0.01976321
0.01934743
0.01890359
0.0182836
0.01780429
0.01853802
0.02179465
0.02897794
0.04274281
0.06996855
0.07651005
0.07920027
0.08075241
0.0815635
0.08075679
0.06880448
0.09092591
0.08502027
0.08224162
0.08050377
0.07869433
0.07462016
0.05758257
0.04329163
0.0350589
0.02979108
0.02613372
0.0235429
0.02177322
0.02067969
0.02010034
0.01978885
0.01945805
0.01894165
0.01856738
0.01937281
0.02263422
0.02974792
0.0433629
0.07027983
0.07657564
0.07912602
0.08059436
0.08136349
0.08055914
0.06861951
0.09087065
0.08494822
0.08218123
0.08048766
0.0788008
0.0750467
0.05807201
0.04452989
0.03595461
0.03036491
0.02651468
0.02382189
0.02201586
0.02094254
0.02043218
0.02022149
0.0200039
0.0195987
0.01934618
0.02024806
0.02353389
0.03057824
0.04401293
0.07053564
0.07659794
0.07899553
0.08036386
0.0810774
0.08027165
0.06834612
0.09077448
0.08482294
0.08206993
0.08042709
0.07889027
0.07584703
0.06528001
0.04659392
0.03699091
0.03100751
0.02694156
0.02412367
0.02226097
0.02119368
0.02074412
0.02063029
0.0205269
0.02024275
0.02013022
0.02115597
0.02449202
0.03147427
0.04469916
0.07076031
0.0765798
0.07880857
0.0800543
0.08068751
0.07986325
0.06794534
0.09061809
0.08462777
0.08190037
0.0803203
0.07892197
0.07615562
0.06350368
0.0478038
0.03803096
0.0317358
0.02742924
0.02444881
0.02249934
0.02141932
0.02102095
0.02099988
0.02101136
0.02085833
0.0209051
0.02208996
0.02552248
0.03247783
0.04547609
0.07098517
0.07655585
0.07859904
0.07969043
0.08019736
0.07930104
0.06736155
0.0903869
0.08437385
0.08171321
0.08023739
0.07905891
0.07721413
0.07171562
0.05084829
0.03971104
0.03276132
0.02804919
0.02481336
0.0227265
0.02160925
0.02125154
0.02131827
0.02144311
0.02142871
0.02165432
0.02304805
0.02666896
0.03371201
0.04653248
0.07133486
0.07665446
0.07849615
0.07939185
0.07969084
0.07856179
0.06653988
0.09012263
0.08421442
0.08174273
0.08045164
0.07949189
0.0780852
0.07390327
0.05480791
0.04233691
0.03427904
0.02887558
0.02523813
0.02294661
0.02176422
0.02143476
0.02158023
0.02181099
0.02193643
0.0223585
0.02403131
0.02801898
0.03547428
0.04845302
0.07222539
0.07726953
0.07888973
0.07955091
0.07954025
0.07790978
0.06537619
0.09016733
0.0848719
0.08289211
0.08194896
0.08129658
0.08038636
0.07790213
0.06960299
0.0480634
0.03664843
0.02994331
0.02572013
0.02316504
0.02189428
0.02157411
0.0217753
0.02209013
0.02234719
0.0229803
0.02501893
0.02967844
0.03839182
0.05320559
0.07503181
0.07956978
0.08088883
0.08131033
0.08098625
0.0785911
0.06397104
0.09241202
0.08934038
0.08844156
0.08807751
0.08785243
0.08751946
0.08637184
0.08157651
0.05915543
0.03939442
0.03092591
0.02613751
0.02335114
0.02197231
0.02159214
0.02175907
0.02208599
0.02246446
0.0233532
0.02583411
0.03145717
0.04309216
0.06849651
0.08432783
0.08712934
0.08780052
0.08801108
0.08782089
0.0860433
0.07249497
0.09016744
0.08487203
0.08289261
0.08195011
0.08129543
0.08035372
0.07752974
0.06436937
0.04714744
0.03663819
0.03003581
0.02575692
0.02308469
0.0216348
0.02108458
0.02105627
0.02123021
0.0215298
0.02233012
0.02453354
0.0293262
0.03815688
0.05309328
0.075007
0.07956322
0.08088768
0.0813128
0.08099076
0.07859549
0.06397171
0.08594111
0.07603462
0.07142055
0.06889948
0.0670574
0.0649007
0.06104032
0.05298541
0.04263473
0.03476875
0.029199
0.02536649
0.02289983
0.0215462
0.02103839
0.02101998
0.02116302
0.02134092
0.02190172
0.02372172
0.02779072
0.03488992
0.04535922
0.05750108
0.0630281
0.06528686
0.06580267
0.06435824
0.05834305
0.03663958
0.08530891
0.07381533
0.06784406
0.06431757
0.06166802
0.05877484
0.05438841
0.04656027
0.03898177
0.03286947
0.02824593
0.0249098
0.02268167
0.02140478
0.02086753
0.02075876
0.0207832
0.02081744
0.02118353
0.02268021
0.02614154
0.03209551
0.04065981
0.05077217
0.05621981
0.05875217
0.05944578
0.05808497
0.05249805
0.03372814
0.08545117
0.07355009
0.06698626
0.06289258
0.05969442
0.05620254
0.05122915
0.04350275
0.03680956
0.03151578
0.02746987
0.02449506
0.02245812
0.021237
0.02065018
0.02042374
0.02029976
0.02017132
0.02034907
0.02159385
0.02468575
0.03012186
0.03812282
0.04800962
0.0536227
0.05647563
0.05760115
0.05690489
0.05253899
0.035535
0.0856825
0.07374891
0.06695667
0.06255916
0.05898182
0.05495248
0.0490228
0.04168528
0.03545456
0.03058143
0.02687098
0.02413123
0.02222583
0.02103343
0.02038148
0.02002174
0.0197316
0.01942815
0.01942806
0.02049536
0.02340755
0.02868699
0.03666436
0.04683613
0.0528188
0.05606755
0.05765988
0.05756983
0.05402672
0.03741232
0.08585964
0.07397749
0.06710084
0.06253631
0.05870475
0.05432022
0.04800922
0.04057793
0.03453422
0.02989418
0.02639052
0.02380388
0.0219823
0.02079284
0.02006038
0.01955362
0.01908304
0.01859655
0.01843397
0.01939051
0.02225125
0.02755404
0.03570051
0.04628006
0.05268957
0.05632481
0.05829993
0.0586126
0.0554809
0.03876926
0.08597186
0.07413836
0.06722318
0.06254673
0.05849922
0.05371676
0.04644735
0.0394308
0.03371881
0.0293134
0.02597846
0.02350373
0.02173372
0.02052533
0.01969674
0.01902839
0.01836357
0.0176883
0.01738264
0.01828706
0.02117976
0.02658635
0.03494822
0.04591711
0.05273474
0.0567106
0.05897715
0.05954198
0.05660602
0.03969557
0.08603514
0.07422995
0.06728733
0.0625236
0.05829393
0.05319594
0.04535409
0.03847606
0.03302277
0.02882135
0.02562473
0.02323262
0.02149047
0.02024573
0.01930663
0.01846172
0.01758892
0.01672073
0.01629606
0.01720069
0.0201787
0.02571745
0.03428122
0.04557243
0.05275788
0.05702745
0.05951869
0.06024842
0.0574106
0.04031946
0.08606632
0.07427147
0.06730428
0.06247542
0.05812394
0.05285027
0.04476532
0.03788739
0.03253897
0.02844745
0.02533565
0.02299495
0.02126204
0.01996918
0.01890927
0.01787558
0.01678362
0.01572186
0.01520694
0.01615651
0.01925049
0.02492191
0.03365043
0.04517333
0.0527004
0.05722672
0.05989843
0.06074514
0.05796293
0.0407359
0.08607835
0.07428207
0.06729116
0.06241106
0.05797479
0.05260379
0.04441877
0.03752008
0.03220723
0.02816815
0.02510375
0.0227925
0.02105743
0.01971149
0.01852792
0.01730192
0.01598894
0.01474125
0.01416608
0.01519029
0.01840893
0.02419839
0.03305235
0.04472596
0.05256624
0.05731778
0.06013922
0.06107555
0.05833054
0.04100922
0.08608023
0.0742763
0.0672619
0.06233525
0.05781866
0.05238014
0.04414997
0.0372466
0.03195733
0.02795172
0.02491824
0.02262548
0.02088392
0.01948789
0.01819103
0.01678928
0.01527463
0.01386225
0.01324736
0.01434766
0.01767431
0.02355736
0.03250548
0.0442932
0.05238547
0.05732889
0.06027551
0.06128367
0.05856712
0.04118389
0.08607781
0.07426393
0.06722544
0.06224774
0.05763413
0.05209381
0.04385763
0.03699275
0.03174669
0.02777786
0.02477163
0.02249323
0.02074594
0.01931155
0.01793071
0.01640029
0.01473478
0.01319424
0.01253851
0.0136781
0.01706927
0.02301299
0.03203111
0.04393247
0.05219084
0.0572904
0.06034
0.06140615
0.05871273
0.04129101
0.08607454
0.07425093
0.06718716
0.06214383
0.05738162
0.05161063
0.04346486
0.03672468
0.0315606
0.02763995
0.02466089
0.02239468
0.02064522
0.0191915
0.0177717
0.01618528
0.01445068
0.01283568
0.01211807
0.01322654
0.01661573
0.02257742
0.03163501
0.04361786
0.05200173
0.05722723
0.06035927
0.06147112
0.05879638
0.04135259
0.08607212
0.07424152
0.0671587
0.0620622
0.05716525
0.05112667
0.04312499
0.03651548
0.03142593
0.02754512
0.02458613
0.02232837
0.02058155
0.01913161
0.01772583
0.01616904
0.01446529
0.01284404
0.01203748
0.01302782
0.01633316
0.02225914
0.03131437
0.04333783
0.05182734
0.05715652
0.06035279
0.06149882
0.05883829
0.04138373
0.08607124
0.0742381
0.06714963
0.06204156
0.05710159
0.05079991
0.04299754
0.03644123
0.03137195
0.02750244
0.02454908
0.0222943
0.02055523
0.01913267
0.01779388
0.01635171
0.01477717
0.01321963
0.01230446
0.01309736
0.0162354
0.02206064
0.03104026
0.04301534
0.05165041
0.05708547
0.06033303
0.06150243
0.0588514
0.04139403
0.08607221
0.07424075
0.06715556
0.06205325
0.05711773
0.05091911
0.04304958
0.03647477
0.03139178
0.02751194
0.02455135
0.02229478
0.02056815
0.01919146
0.01795743
0.01668513
0.0153011
0.01386671
0.01286078
0.01341648
0.01632809
0.02199277
0.03077918
0.04245296
0.05143497
0.05701948
0.06030824
0.06148922
0.05884236
0.04138825
0.08607498
0.07424928
0.06717703
0.06210657
0.05724587
0.05118028
0.04325193
0.03660979
0.03148072
0.02757123
0.02459301
0.02233128
0.02062002
0.01929785
0.01818101
0.01709005
0.01590484
0.01461389
0.01356755
0.01391925
0.01660752
0.02213698
0.03084963
0.04237277
0.05143841
0.05701325
0.06028805
0.06146115
0.05881184
0.04136648
0.08607923
0.07426265
0.06721125
0.06219631
0.05749627
0.05181076
0.04362764
0.03683323
0.03162793
0.02767536
0.02467301
0.02240416
0.02070965
0.01944372
0.01843995
0.0175157
0.0165104
0.01535741
0.01431868
0.01452981
0.01704003
0.022482
0.03127346
0.04311379
0.05168398
0.05706045
0.06026686
0.06141276
0.05875431
0.04132464
0.08608405
0.07427864
0.06725207
0.06229517
0.05771994
0.05221411
0.04397262
0.03708643
0.03181425
0.02781814
0.02478995
0.02251308
0.02083538
0.0196241
0.01872463
0.0179476
0.01709829
0.01606779
0.01506994
0.01520482
0.0175854
0.02293467
0.03169214
0.04350409
0.0518692
0.05709892
0.0602253
0.06133092
0.05865769
0.04125414
0.08608752
0.074293
0.06729046
0.06238183
0.05789459
0.05247272
0.04424871
0.03733648
0.03202714
0.02799687
0.02494376
0.02265751
0.02099512
0.01983563
0.0190322
0.0183863
0.01767369
0.01675158
0.01581544
0.01592616
0.01822234
0.02348064
0.03215097
0.04383759
0.05203541
0.05711452
0.0601439
0.06119606
0.0585026
0.04114065
0.08608602
0.07429944
0.06732034
0.06245749
0.05804602
0.0526982
0.04453744
0.037628
0.03228909
0.02822187
0.02513778
0.02283652
0.02118545
0.02007409
0.01936038
0.0188346
0.01824618
0.0174239
0.01656427
0.01669105
0.01894177
0.02411771
0.0326765
0.04419354
0.05219124
0.05708942
0.059998
0.06098092
0.05826065
0.04096275
0.08607371
0.07428821
0.06733261
0.06252184
0.05820141
0.05297841
0.04500889
0.03806915
0.0326539
0.02851635
0.02537925
0.02304918
0.0214013
0.02033303
0.01970404
0.01929153
0.01882078
0.0180961
0.01732664
0.01750197
0.01973947
0.02484213
0.03327092
0.04457781
0.0523197
0.05699744
0.05975604
0.06064923
0.05789202
0.04068943
0.08604174
0.07424502
0.06731333
0.06256926
0.05838739
0.05341901
0.04606946
0.03884789
0.03319506
0.02890746
0.02567582
0.02329389
0.02163609
0.02060341
0.02005409
0.01975035
0.019395
0.01877129
0.01810728
0.01836038
0.02061282
0.02565073
0.03393309
0.04500918
0.05240151
0.05681157
0.05938344
0.06015668
0.05734271
0.0402761
0.08597739
0.07415108
0.06724503
0.06258415
0.05857088
0.05387022
0.0468669
0.03968637
0.03385242
0.02938572
0.02602576
0.02356671
0.0218818
0.02087385
0.02039766
0.02019887
0.01995902
0.01944388
0.01890323
0.01926412
0.02156124
0.02654602
0.03466234
0.04545819
0.05242703
0.05651989
0.05885583
0.05945881
0.05654444
0.03965778
0.08586395
0.07398749
0.06711777
0.06256369
0.05875028
0.05439831
0.04815806
0.04069596
0.03460893
0.02993897
0.02642503
0.02386251
0.02212868
0.02113064
0.0207191
0.02062122
0.02049781
0.02010129
0.01970431
0.02020771
0.02259011
0.02754949
0.03549019
0.04593507
0.05244117
0.05616632
0.05819696
0.05854088
0.0554278
0.03873858
0.08568553
0.07375613
0.06696894
0.06257921
0.05901752
0.05502075
0.04915252
0.04178296
0.03550597
0.0306044
0.02688933
0.02418024
0.02236603
0.02135889
0.02100236
0.02100124
0.02099476
0.02072703
0.02049536
0.02118463
0.02371781
0.0287236
0.03653111
0.04659289
0.0526312
0.05594382
0.05757706
0.05751063
0.05398248
0.03738933
0.08545302
0.07355481
0.06699464
0.06290828
0.05973351
0.05631125
0.05148013
0.04366631
0.03687098
0.03152421
0.02746952
0.02452922
0.02258752
0.02154822
0.02123654
0.02132709
0.02143558
0.02130407
0.02125889
0.02218963
0.02498354
0.03020276
0.03806202
0.04785266
0.05349194
0.05638571
0.05753828
0.05685805
0.05250363
0.03551902
0.08530984
0.07381799
0.06784879
0.06432563
0.06168617
0.05882512
0.05450576
0.04670819
0.03902976
0.03285043
0.02821776
0.02492254
0.02279611
0.02170051
0.02142215
0.02159526
0.0218109
0.02181677
0.02197554
0.02321516
0.02644427
0.03222417
0.0406642
0.05068564
0.05613934
0.05869381
0.0594023
0.05805036
0.05247099
0.03371779
0.08594143
0.0760358
0.07142257
0.06890236
0.06706374
0.06492525
0.06114675
0.05346538
0.04277392
0.0347279
0.02913462
0.02535271
0.02299772
0.02182733
0.02156494
0.02179832
0.02209961
0.0222347
0.02260852
0.0242232
0.0281152
0.03507199
0.04542136
0.05746703
0.06299194
0.06525892
0.06577951
0.06433761
0.05832562
0.03663367
0.09016735
0.08487197
0.08289225
0.08194896
0.08129454
0.08036511
0.07771632
0.06782464
0.04785291
0.03664432
0.02994763
0.02572281
0.02316905
0.02190123
0.02158465
0.02178893
0.0221045
0.02235813
0.0229862
0.0250215
0.02967942
0.03839108
0.05320324
0.07502808
0.07956749
0.08088727
0.08130924
0.08098545
0.0785905
0.06397074
0.09012257
0.08421431
0.0817431
0.08045225
0.07948585
0.07805781
0.07412025
0.06085324
0.04303389
0.03440108
0.0289318
0.02524518
0.02285492
0.02150468
0.02094463
0.02084706
0.02091869
0.02107846
0.0216813
0.02354918
0.02769586
0.03527305
0.04835509
0.07221733
0.07727393
0.07889558
0.07955825
0.07954838
0.07791676
0.06537838
0.08530897
0.07381556
0.06784451
0.06431814
0.06166852
0.05877966
0.05444946
0.04702043
0.03909079
0.03288522
0.02824807
0.02491327
0.0226888
0.02141801
0.02089091
0.02079564
0.02083226
0.02087145
0.02123144
0.02271135
0.02615169
0.03208899
0.04064347
0.05074876
0.05620262
0.0587419
0.05943987
0.05808145
0.05249576
0.03372702
0.08437165
0.070757
0.06286654
0.05790987
0.05423653
0.05076857
0.04675267
0.04151952
0.03609423
0.0313176
0.02745349
0.02452788
0.02249679
0.02127611
0.0207
0.02049869
0.02040848
0.02030639
0.02047568
0.02162525
0.02440896
0.02903382
0.03513089
0.04151013
0.045989
0.04832685
0.04869852
0.0465897
0.0400197
0.0231867
0.08439319
0.07015428
0.06137709
0.05560974
0.05129687
0.04743555
0.0433905
0.03876313
0.03419859
0.03013973
0.02677819
0.02416619
0.02229586
0.02110957
0.02046657
0.02013344
0.01988777
0.01962506
0.01960634
0.02048371
0.02281643
0.02671246
0.03178887
0.03711775
0.04117914
0.04347205
0.04395049
0.04211066
0.0362897
0.0215453
0.08457905
0.07023893
0.06110622
0.05491481
0.05019425
0.04600479
0.04175007
0.03726813
0.03302589
0.02931277
0.02624237
0.02383686
0.02207781
0.0209039
0.02018075
0.01970107
0.01928211
0.01884449
0.01864456
0.01932017
0.02139838
0.0249796
0.0297509
0.03493762
0.03910586
0.04168518
0.04261226
0.04143923
0.03658774
0.02263223
0.08473768
0.07043264
0.06116896
0.05476194
0.04978618
0.04535445
0.0409011
0.03639411
0.03226259
0.02871651
0.02581096
0.02353279
0.02184029
0.0206552
0.01983742
0.01919693
0.0185887
0.01796528
0.01759791
0.0181429
0.02011881
0.02363452
0.02843762
0.03383137
0.03835813
0.04137163
0.04280732
0.04223173
0.03801571
0.02398791
0.08484073
0.07058219
0.06126599
0.05473784
0.04958744
0.0449601
0.0402793
0.03574734
0.03168701
0.02824813
0.0254485
0.02325034
0.02159139
0.02037369
0.01944502
0.0186269
0.01781245
0.01699443
0.01648067
0.01696355
0.01894716
0.02253285
0.02750444
0.03320719
0.03815152
0.04159731
0.04346305
0.04330542
0.03942373
0.02503929
0.08489827
0.07066822
0.06132202
0.05471364
0.04943323
0.04465861
0.03979965
0.03523496
0.03122703
0.02786658
0.02514027
0.02299253
0.02134404
0.02007622
0.01901992
0.01800454
0.01696507
0.01594565
0.01531532
0.01580156
0.0178686
0.02158685
0.02675861
0.03275653
0.03809213
0.041913
0.04411177
0.04423117
0.04051695
0.02577175
0.0849253
0.07070543
0.06133512
0.05466948
0.04929702
0.04443198
0.03947072
0.03487013
0.03088175
0.02756474
0.02488274
0.02276375
0.02111057
0.01978073
0.0185824
0.01735003
0.0160673
0.01484465
0.01413701
0.01468547
0.01688226
0.0207511
0.0261069
0.03234557
0.03801858
0.04215141
0.04460674
0.04491578
0.04129166
0.02626397
0.08493405
0.07071199
0.06131918
0.05460968
0.04917217
0.04425205
0.03923386
0.03460537
0.03062096
0.02732622
0.02467023
0.02256714
0.02090176
0.01950504
0.01815711
0.01669565
0.01516076
0.013745
0.01300361
0.01365516
0.01599796
0.02000882
0.02551966
0.03195795
0.03789069
0.04227796
0.04493461
0.04538144
0.0418139
0.0265869
0.08493311
0.07070227
0.06128778
0.05454184
0.04905966
0.04409378
0.03903975
0.03439517
0.03041442
0.02713508
0.02449698
0.02240392
0.0207249
0.01926521
0.01777675
0.01610009
0.01433116
0.01274967
0.01200338
0.01276141
0.01523236
0.01935824
0.02499014
0.03158419
0.03771659
0.0423095
0.04512617
0.04567794
0.04215187
0.02679271
0.08492815
0.07068614
0.06125059
0.05446976
0.04894421
0.04393037
0.03885525
0.03421164
0.03024389
0.02698156
0.02435876
0.02227308
0.02058276
0.01907479
0.0174823
0.01564919
0.01370683
0.0119999
0.0112404
0.01205776
0.01460558
0.01880712
0.02452697
0.0312416
0.03752168
0.04227728
0.04522048
0.04585356
0.0423605
0.0269185
0.08492264
0.07066996
0.06121455
0.05439752
0.04882131
0.04374203
0.03866541
0.03404632
0.03010477
0.02686295
0.0242535
0.02217281
0.02047585
0.01894374
0.01730534
0.01540872
0.01339247
0.01161426
0.01080133
0.01159067
0.01413922
0.01836814
0.02414133
0.03094131
0.03732943
0.04221101
0.04525205
0.04594722
0.04248061
0.02699044
0.08491861
0.07065831
0.06118846
0.05434409
0.04872744
0.04359014
0.03852019
0.03392679
0.03000864
0.02678255
0.02418103
0.02210208
0.02040452
0.01887733
0.01726049
0.01540771
0.01343771
0.01165681
0.01074121
0.01139764
0.01385578
0.01805554
0.02384298
0.03069219
0.0371574
0.04213372
0.04524725
0.0459874
0.04254089
0.02702648
0.08491708
0.07065386
0.06117882
0.05432593
0.04869623
0.04353526
0.03846923
0.03388082
0.02996786
0.02674482
0.02414284
0.02206214
0.02037073
0.01887797
0.01735075
0.01564979
0.0138438
0.01212957
0.01107025
0.0114978
0.0137739
0.01788273
0.02363731
0.03049157
0.03701322
0.04206062
0.04522401
0.045993
0.04255983
0.02703809
0.08491838
0.07065703
0.06118473
0.05433608
0.0487127
0.04356076
0.03849433
0.03390159
0.02998202
0.02675138
0.0241419
0.02205764
0.02037917
0.01894324
0.0175523
0.01607099
0.01450027
0.01291952
0.01172275
0.0118704
0.01389857
0.01786416
0.02353807
0.03033859
0.03690745
0.04200502
0.04519398
0.04597443
0.04254701
0.02703104
0.08492242
0.07066757
0.06120589
0.05437568
0.04877805
0.04365968
0.03859275
0.03398502
0.03004771
0.02680105
0.02417949
0.02209173
0.02043106
0.01906062
0.01781526
0.01655773
0.01522213
0.01379972
0.01253698
0.01244258
0.01421353
0.01802101
0.02362045
0.03037677
0.03691935
0.04199327
0.0451646
0.04593414
0.04250356
0.02700563
0.08492867
0.07068403
0.06123923
0.05443882
0.04888402
0.04383083
0.03875335
0.0341201
0.03015785
0.02689059
0.02425502
0.02216478
0.02052486
0.01921983
0.01810721
0.01704348
0.01591029
0.01463795
0.01337454
0.01311773
0.0146778
0.01834049
0.02387841
0.03060903
0.03704053
0.04201794
0.0451287
0.04586431
0.04242152
0.02695691
0.08493591
0.07070372
0.06127962
0.05451417
0.04900519
0.04400816
0.03893804
0.03428809
0.03030357
0.02701623
0.024367
0.0222754
0.02065738
0.01941448
0.01841905
0.01751856
0.01655381
0.0154105
0.01418728
0.01384362
0.01525186
0.01878375
0.02423197
0.03087661
0.03718784
0.04204319
0.045065
0.04574657
0.04228338
0.02687441
0.08494198
0.07072203
0.06131941
0.05458831
0.04912099
0.04416795
0.03912106
0.03447372
0.03047866
0.02717606
0.02451446
0.02242176
0.02082525
0.01964062
0.01874988
0.01799014
0.0171689
0.01613643
0.01497604
0.01460365
0.01591456
0.01933164
0.02466683
0.03118125
0.03734341
0.04204393
0.04494703
0.04555329
0.0420615
0.02674102
0.08494333
0.07073253
0.06135177
0.05465766
0.04923978
0.0443296
0.03932124
0.03469067
0.03069163
0.02737429
0.02469808
0.02260172
0.02102437
0.01989416
0.01909949
0.01846611
0.01777298
0.01684051
0.01575761
0.01539972
0.01665842
0.01997629
0.02517977
0.03152397
0.03749231
0.04199406
0.04474198
0.04524666
0.04171593
0.02653124
0.08493433
0.07072542
0.061367
0.0547173
0.04936733
0.04451748
0.03957929
0.03497258
0.03096344
0.02762121
0.02492062
0.02281289
0.02124924
0.02016886
0.01946418
0.01894859
0.01837569
0.01753986
0.01654784
0.0162392
0.01748298
0.02071537
0.02576914
0.03190019
0.03761674
0.04186549
0.04441199
0.04477896
0.04119207
0.02620817
0.08490649
0.0706865
0.06135151
0.05475915
0.04950419
0.04475562
0.03995751
0.03536604
0.03132117
0.02792973
0.02518557
0.02305232
0.02149255
0.02045531
0.01983523
0.01943224
0.0189767
0.01824043
0.01735466
0.01712745
0.01839111
0.02155338
0.02644213
0.03231703
0.03771121
0.04164189
0.04392592
0.04409986
0.04042136
0.02571943
0.08484775
0.07059785
0.06129126
0.05477644
0.04964513
0.04503791
0.04039806
0.03585397
0.03176868
0.02830634
0.02549481
0.0233158
0.02174478
0.02074065
0.02019895
0.01990478
0.01956656
0.01893719
0.01817613
0.01806489
0.0193891
0.02250879
0.02722998
0.03281065
0.03781361
0.04135472
0.04329481
0.04318557
0.03933657
0.02499337
0.08474328
0.07044521
0.06118916
0.05479212
0.04982915
0.04540889
0.0409727
0.03646477
0.03232139
0.02876155
0.02585168
0.02359825
0.02199397
0.0210089
0.02053809
0.02034946
0.02012957
0.01961675
0.01900128
0.01904673
0.02048905
0.02362582
0.02821763
0.03350162
0.03807548
0.04116527
0.04266167
0.04212666
0.03793952
0.02395011
0.08458319
0.07024839
0.06112156
0.05493779
0.05022732
0.04604843
0.04180895
0.03732362
0.03306859
0.02934353
0.02627297
0.02389679
0.02222712
0.02124334
0.02083548
0.02074949
0.02064855
0.0202616
0.01981335
0.02006499
0.02171322
0.0249909
0.02958843
0.03468166
0.03888063
0.04151671
0.04249035
0.04134948
0.03652261
0.0226027
0.084396
0.07016104
0.06138848
0.05562767
0.05132566
0.04748104
0.04346536
0.03882794
0.03423769
0.03015838
0.02679509
0.02421509
0.02243608
0.02143343
0.02108079
0.02109399
0.02111029
0.02085538
0.02059435
0.02111153
0.02309759
0.02674962
0.03168148
0.03692834
0.04100694
0.0433399
0.04385202
0.042036
0.03623493
0.02152278
0.0843734
0.07076158
0.06287462
0.05792277
0.05425757
0.05080412
0.04681115
0.04158519
0.03613617
0.03132502
0.02745261
0.0245605
0.02262402
0.02158359
0.02127796
0.02138338
0.0215099
0.02138719
0.02132842
0.02217624
0.02468232
0.0291083
0.03507929
0.04138365
0.04586607
0.04823129
0.04862573
0.04653256
0.03997641
0.02317001
0.08530992
0.07381829
0.06784944
0.06432636
0.06168445
0.05881565
0.0544974
0.04690273
0.03914782
0.03289181
0.0282293
0.02492754
0.02280221
0.02171044
0.02143709
0.02161448
0.02183116
0.0218327
0.02198501
0.02321896
0.02644367
0.03221995
0.04065656
0.05067318
0.05613031
0.05868751
0.0593978
0.05804695
0.05246833
0.03371645
0.09012271
0.08421472
0.08174342