/*--------------------------------*- C++ -*----------------------------------*\
| =========                 |                                                 |
| \\      /  F ield         | OpenFOAM: The Open Source CFD Toolbox           |
|  \\    /   O peration     | Version:  2506                                  |
|   \\  /    A nd           | Website:  www.openfoam.com                      |
|    \\/     M anipulation  |                                                 |
\*---------------------------------------------------------------------------*/
FoamFile
{
    version     2.0;
    format      ascii;
    arch        "LSB;label=32;scalar=64";
    class       volScalarField;
    location    "500/airRegion";
    object      nut;
}
// * * * * * * * * * * * * * * * * * * * * * * * * * * * * * * * * * * * * * //

dimensions      [0 2 -1 0 0 0 0];

internalField   nonuniform List<scalar> 
85779
(
0.09218024
0.09255105
0.09235045
0.09212015
0.09187101
0.09142756
0.09020371
0.08610394
0.0743689
0.06901979
0.06693254
0.06718312
0.06947833
0.07358292
0.07870956
0.08317515
0.08459115
0.08037328
0.07250044
0.06596263
0.06393169
0.06765214
0.07988418
0.08844688
0.09064822
0.09109872
0.09072251
0.08817776
0.07420139
0.02015476
0.0922857
0.09278412
0.0924121
0.09189049
0.09128557
0.09028925
0.08796488
0.0821555
0.07420452
0.07027786
0.06852687
0.06863784
0.07059831
0.074288
0.07899365
0.08314071
0.08447599
0.08050188
0.07286017
0.06651142
0.06461172
0.06765888
0.07516271
0.08493833
0.08840747
0.08915557
0.08840401
0.08455703
0.06887419
0.01893297
0.0921089
0.09234036
0.09175245
0.09101844
0.09017661
0.08880469
0.08556996
0.07873036
0.07415135
0.0713455
0.06998429
0.07007534
0.07173571
0.07491365
0.07899584
0.08259784
0.08370749
0.07996882
0.07251879
0.06610862
0.0638126
0.06591859
0.071887
0.082549
0.08636354
0.08720158
0.08649347
0.08294333
0.06864144
0.01914002
0.09206408
0.09210621
0.09134658
0.09045654
0.08943675
0.0877422
0.08379825
0.07647619
0.07314341
0.07130548
0.07050641
0.0708024
0.07235077
0.0751299
0.07861199
0.0816131
0.0824062
0.07881277
0.07142068
0.06476787
0.06201116
0.06358866
0.06937068
0.08122148
0.08519175
0.0861124
0.0856008
0.0825834
0.06944456
0.01931
0.0920808
0.09203854
0.09117769
0.09018103
0.08900041
0.08681744
0.08141443
0.07532079
0.07227466
0.0708502
0.07042571
0.07092816
0.0724434
0.07491155
0.07784014
0.08021703
0.08061678
0.0770886
0.06971401
0.0628658
0.05990889
0.06147904
0.06766276
0.08051752
0.08462877
0.08564988
0.08533261
0.08271713
0.07026134
0.01942935
0.09210839
0.0920339
0.09111814
0.09005216
0.08875638
0.08635738
0.08074376
0.07394339
0.07134698
0.07028675
0.07013045
0.07076902
0.07222868
0.07439026
0.07675809
0.07845917
0.07838109
0.07486384
0.06755969
0.06069183
0.0578465
0.05974413
0.06648824
0.08011978
0.08437629
0.08549857
0.08532778
0.08294285
0.07066367
0.01951395
0.09213025
0.09204302
0.09109487
0.08997442
0.08854099
0.0855733
0.07850353
0.07366786
0.07119526
0.07016183
0.07002553
0.07062784
0.07192461
0.07371403
0.07545979
0.07639916
0.07574875
0.07220503
0.06507237
0.05839322
0.05591245
0.05830525
0.0656112
0.07986173
0.08426045
0.08547385
0.08540778
0.08316119
0.07094841
0.01957193
0.0921438
0.0920499
0.09108031
0.08991742
0.08837601
0.08506754
0.07746897
0.07349246
0.07135115
0.07031849
0.07008419
0.07054302
0.07160148
0.07296079
0.07401638
0.07410196
0.07279061
0.06919534
0.06234372
0.05604342
0.05410649
0.05706474
0.06489099
0.07966358
0.08419622
0.08548831
0.08549731
0.08333723
0.07115237
0.01961143
0.09215063
0.09205181
0.09106773
0.08987683
0.08827129
0.08478615
0.07675168
0.07301825
0.07113098
0.07021454
0.06999333
0.07037725
0.07123011
0.07216103
0.07249279
0.07166254
0.06963327
0.06597509
0.05949109
0.0537101
0.05242413
0.05596112
0.06425658
0.07948826
0.08414586
0.08550586
0.08557022
0.08346648
0.07129394
0.01963808
0.09215307
0.09204977
0.09105519
0.08984511
0.08820097
0.08462928
0.07634376
0.07261068
0.07081982
0.06999061
0.0698111
0.07016155
0.07084608
0.07137522
0.07099491
0.06925131
0.06650651
0.06278547
0.05670075
0.05149587
0.05088583
0.05497135
0.06368148
0.07932189
0.08409533
0.08551448
0.08562115
0.08355559
0.07138894
0.0196557
0.09215309
0.09204541
0.09104179
0.08981416
0.08813433
0.08450156
0.07607771
0.07232951
0.07058102
0.06980233
0.06965098
0.06997334
0.07051438
0.070693
0.06968503
0.0671371
0.06376211
0.05997831
0.05424156
0.04954951
0.04953926
0.05409971
0.06316545
0.07915634
0.0840406
0.0855124
0.08565251
0.08361371
0.07145036
0.01966703
0.0921521
0.09203996
0.09102639
0.08977452
0.08803622
0.08431175
0.07584551
0.07216561
0.07047037
0.06972167
0.06957512
0.06986084
0.07028451
0.0702022
0.06874323
0.06562506
0.06179341
0.05794639
0.05242748
0.04804883
0.04845007
0.05336528
0.06271689
0.07898945
0.08398258
0.08550184
0.0856689
0.08364929
0.07148822
0.01967399
0.09215097
0.09203433
0.09100838
0.08971877
0.08787652
0.0840109
0.07574756
0.07223649
0.07055868
0.06978211
0.06959679
0.06983066
0.07017233
0.06995326
0.06828789
0.06492447
0.06089446
0.05701616
0.05154736
0.04716911
0.04769075
0.05279157
0.06233839
0.07883718
0.08392507
0.08548587
0.08567483
0.08366909
0.07150991
0.01967801
0.09215014
0.09203006
0.09099377
0.08966691
0.08769327
0.08353476
0.07573619
0.07237176
0.07068634
0.06987099
0.06964378
0.06984048
0.07016124
0.06995985
0.0683744
0.06514627
0.0612391
0.05739679
0.05180216
0.04705392
0.04733507
0.05240696
0.06202128
0.07867331
0.08385922
0.0854645
0.08567344
0.08367802
0.0715207
0.01968005
0.09214981
0.09202842
0.09098866
0.08964269
0.08748577
0.0823539
0.07577305
0.07235779
0.07067534
0.06987261
0.06964609
0.06985069
0.07023282
0.07022315
0.06903153
0.06635192
0.06290243
0.05914911
0.05324139
0.04777613
0.04745708
0.05226809
0.06174812
0.07835303
0.08374219
0.08543168
0.0856662
0.08367929
0.07152396
0.01968074
0.0921501
0.09202934
0.09099104
0.0896481
0.08756733
0.08301929
0.07572916
0.0723423
0.07064682
0.06983568
0.06961512
0.06985903
0.07037385
0.07070417
0.07016904
0.06837639
0.06564907
0.06203116
0.05566708
0.04925939
0.04809322
0.05251674
0.06167778
0.07752835
0.08349971
0.08538164
0.08565479
0.0836749
0.07152145
0.01968038
0.09215097
0.0920326
0.09100072
0.08967977
0.08768027
0.08333566
0.07580564
0.07231139
0.07058207
0.06976655
0.06956567
0.06987371
0.0705626
0.07130135
0.07152829
0.07076057
0.06888542
0.06545173
0.05855468
0.05112534
0.0489493
0.05284382
0.06179104
0.07681918
0.08341883
0.08537481
0.0856494
0.08366672
0.07151339
0.01967895
0.09215232
0.09203775
0.09101664
0.08974187
0.08793309
0.08406941
0.07578152
0.07220651
0.07049593
0.06969927
0.06953096
0.06991555
0.07078996
0.07193714
0.07290015
0.07311733
0.07208662
0.06887093
0.06146487
0.05308592
0.04991181
0.05321131
0.06208354
0.07833331
0.08374579
0.08542586
0.08564925
0.08365324
0.07149836
0.01967621
0.09215387
0.09204377
0.09103347
0.0897902
0.08807456
0.08438287
0.07592988
0.07221639
0.07047773
0.06969117
0.06955293
0.07001038
0.07106016
0.07258056
0.07419524
0.07527417
0.07499328
0.07198241
0.06415189
0.05504064
0.05107983
0.0538808
0.06256601
0.07877898
0.08388057
0.08545254
0.08564147
0.08362982
0.07147316
0.01967161
0.09215514
0.09204947
0.09104828
0.08982557
0.0881571
0.08454312
0.07616061
0.07240448
0.07062101
0.06980581
0.0696655
0.07017392
0.0713781
0.07322933
0.07540512
0.077209
0.07755021
0.07468655
0.06651002
0.05689075
0.05234994
0.05468757
0.06306117
0.07898621
0.08395091
0.08546345
0.08562264
0.0835914
0.07143278
0.01966422
0.09215522
0.09205389
0.09106149
0.08985569
0.08822253
0.08468079
0.076484
0.07271236
0.07086747
0.06999705
0.06983409
0.07038183
0.07172961
0.07388269
0.0765485
0.07895947
0.07979526
0.07699631
0.06853135
0.05859832
0.05366037
0.05557907
0.06359382
0.07917289
0.08400972
0.08546472
0.08558955
0.08353151
0.07136996
0.01965269
0.09215269
0.09205578
0.09107401
0.08988897
0.08830731
0.08492503
0.07711699
0.07309322
0.07110169
0.07015959
0.06997933
0.07058024
0.07208299
0.07453091
0.07764185
0.08056931
0.0817868
0.07896481
0.07026033
0.06018005
0.0550007
0.05654874
0.0641803
0.07937093
0.08406769
0.08545713
0.08553824
0.08344184
0.07127474
0.01963509
0.09214564
0.09205354
0.09108652
0.08993337
0.08845048
0.08544271
0.07799967
0.07299622
0.07096656
0.07010717
0.07000602
0.07071861
0.07241015
0.07516163
0.07869124
0.08206636
0.08356961
0.08064534
0.0717575
0.06168009
0.05639149
0.05761187
0.06483573
0.07957246
0.08412712
0.08544256
0.08546639
0.08331322
0.07113407
0.01960866
0.0921318
0.09204608
0.09109996
0.08998651
0.0885907
0.08579888
0.07900308
0.07362161
0.07106815
0.07006975
0.07001108
0.07084028
0.07272317
0.07577047
0.07969123
0.08345571
0.08516272
0.08207308
0.07307519
0.06314739
0.05787265
0.058806
0.06558736
0.07979338
0.0842019
0.08543279
0.08537914
0.08313877
0.07093186
0.01956956
0.09210961
0.09203629
0.09112187
0.09005954
0.08877902
0.08643829
0.08097274
0.07405858
0.07138243
0.07030241
0.07019558
0.07104008
0.07304063
0.07633785
0.08061291
0.08471533
0.0865568
0.08325701
0.07423792
0.06461228
0.05949129
0.06020035
0.06650039
0.08007444
0.08432959
0.08546346
0.0853023
0.08292258
0.07064897
0.01951209
0.09208168
0.09204029
0.09118045
0.09018701
0.08901953
0.08687922
0.08154931
0.07537662
0.07227951
0.07086699
0.07051866
0.07123623
0.07326819
0.07677602
0.08138599
0.08579446
0.08771697
0.08417543
0.07522136
0.06605199
0.06127155
0.06189549
0.06771041
0.08049391
0.08459421
0.08562135
0.08531076
0.08269878
0.07024382
0.01942808
0.09206465
0.09210741
0.09134873
0.09046299
0.08946195
0.08782273
0.08392438
0.07642059
0.07301059
0.07123915
0.07057238
0.07111638
0.07317912
0.07692964
0.08190804
0.08662448
0.08859189
0.0847755
0.07593099
0.06733677
0.0631354
0.06397076
0.06944926
0.08121733
0.08516889
0.08609071
0.08558304
0.08256784
0.06942913
0.01930922
0.09210924
0.09234112
0.09175373
0.09102188
0.09019016
0.08885294
0.08569176
0.07881813
0.0740595
0.0712623
0.07003795
0.07039454
0.07257081
0.07666975
0.08209618
0.08714567
0.089131
0.08498824
0.07620426
0.06817627
0.06474569
0.06627381
0.07198895
0.08256043
0.08635136
0.08718689
0.08648033
0.08293135
0.06863042
0.01913962
0.09228588
0.09278453
0.09241271
0.09189185
0.09129171
0.09032241
0.08812626
0.08269541
0.07414481
0.07014956
0.06860485
0.06900001
0.07146569
0.07602891
0.08195275
0.08732943
0.08929863
0.08477422
0.07589769
0.0681904
0.06540126
0.0679984
0.07527928
0.08495926
0.08840401
0.08914788
0.08839625
0.08454937
0.06886712
0.01893282
0.09218028
0.09255115
0.09235055
0.09212038
0.09187255
0.09143815
0.0902753
0.08662285
0.07581416
0.06860767
0.06697823
0.06759537
0.07038678
0.07532344
0.08158157
0.08713754
0.08903076
0.08417616
0.07512316
0.06738811
0.06462546
0.06797794
0.07997879
0.08846165
0.0906493
0.09109717
0.09072045
0.08817539
0.07419893
0.02015475
0.09228572
0.09278414
0.0924121
0.09189047
0.09128585
0.09029086
0.08791485
0.08173238
0.07433728
0.07030958
0.06855383
0.06866936
0.07063381
0.07434059
0.07908627
0.08328917
0.08466797
0.08069339
0.07300838
0.06660008
0.06465248
0.06767233
0.0751644
0.0849383
0.08840762
0.0891556
0.0884039
0.08455669
0.06887358
0.01893291
0.09172563
0.09311264
0.0934594
0.09289751
0.09175621
0.08987605
0.08655122
0.08133103
0.07594546
0.07226822
0.07034329
0.07014093
0.07172554
0.07500961
0.07933018
0.08320575
0.08449296
0.08076244
0.07332607
0.06706157
0.06516401
0.06788745
0.0739366
0.08078965
0.08461057
0.0853516
0.08310863
0.07540605
0.05487753
0.01432844
0.09096694
0.09183974
0.09232071
0.09186168
0.0906075
0.08848889
0.08500584
0.08077089
0.07672991
0.07369756
0.07193614
0.07160187
0.07283568
0.07558602
0.0792707
0.08258629
0.08363159
0.08014676
0.07298382
0.06675301
0.06457422
0.06660226
0.07145682
0.07715213
0.08059577
0.08109722
0.07837523
0.07017883
0.05050815
0.01374739
0.0906545
0.090939
0.09103846
0.09034595
0.08890115
0.08664129
0.08316596
0.0794534
0.07629305
0.07395119
0.07258354
0.07235664
0.07342464
0.07574792
0.07881394
0.08150707
0.08221374
0.07888452
0.07187638
0.06550145
0.06289322
0.06429452
0.06848981
0.0738466
0.07720369
0.07782118
0.07548627
0.0682377
0.05022597
0.01411083
0.09057869
0.09056263
0.09032728
0.08934637
0.08765549
0.08517567
0.08179657
0.07823347
0.07544436
0.07353189
0.0725078
0.07245358
0.07346413
0.0754593
0.07795222
0.07999178
0.08027512
0.077013
0.07009844
0.06356805
0.06067772
0.06183358
0.06597387
0.07158613
0.07516758
0.07614052
0.07444042
0.06823414
0.05135668
0.01447878
0.09058172
0.09044688
0.09001823
0.08882807
0.08692413
0.0841879
0.080546
0.07706776
0.0745306
0.07290706
0.07212739
0.0722037
0.07315907
0.07484297
0.07675324
0.07807668
0.07784361
0.07458747
0.06779771
0.06124878
0.05836492
0.05966573
0.06413443
0.07024794
0.07418592
0.07555538
0.07440316
0.06892178
0.05257968
0.01473903
0.09059981
0.09042177
0.08988983
0.08856253
0.08648625
0.08347522
0.07980359
0.07645055
0.07402262
0.07250882
0.07181332
0.07190201
0.07272648
0.0740441
0.07530152
0.07580561
0.07495353
0.07166852
0.06509816
0.05873546
0.05614802
0.05786084
0.06282042
0.06947402
0.07377123
0.07548376
0.07472944
0.0697001
0.05359036
0.01491408
0.09061366
0.0904173
0.08982674
0.08840987
0.08620844
0.08297447
0.07924425
0.0760979
0.07379791
0.07232453
0.07161842
0.07163655
0.07226485
0.07315085
0.07366268
0.07322803
0.07166205
0.06833805
0.0621062
0.0561382
0.0540782
0.05634852
0.06183369
0.06898587
0.07359616
0.07558124
0.0751035
0.07035348
0.05434338
0.01503086
0.09062021
0.09041223
0.08978594
0.08831295
0.08603002
0.08263662
0.07875989
0.07567345
0.07347889
0.07207722
0.07139207
0.07135626
0.07178628
0.07220914
0.07190056
0.07043082
0.06809308
0.06474533
0.05895705
0.05354838
0.05216549
0.05504885
0.06103475
0.06861731
0.07349395
0.07569352
0.07541035
0.07083865
0.054874
0.01510832
0.09062104
0.09040245
0.08975179
0.08824275
0.08591026
0.08241618
0.07842534
0.07531939
0.07316633
0.07181612
0.07115775
0.07108254
0.07132627
0.07128406
0.07013068
0.06760345
0.0645063
0.06116402
0.055865
0.05108881
0.05043087
0.05391226
0.06034785
0.06829411
0.07339851
0.07576844
0.07562649
0.0711742
0.05523477
0.01515894
0.09061837
0.09038871
0.08971799
0.0881802
0.0858118
0.08224683
0.07819094
0.07506783
0.0729344
0.07161504
0.07097275
0.07086007
0.07093677
0.07047504
0.06855794
0.06509111
0.06133804
0.0580091
0.05314131
0.04893214
0.04892165
0.05292089
0.05973663
0.06798869
0.07329403
0.07579926
0.0757625
0.07139366
0.05547227
0.01519121
0.09061408
0.09037269
0.08968168
0.0881127
0.08570514
0.08208621
0.0780243
0.07492193
0.07281172
0.07150919
0.07086725
0.07071504
0.07066009
0.06989023
0.06742979
0.06330658
0.0590813
0.05573691
0.05114422
0.04728129
0.04770678
0.05208262
0.05918986
0.06768614
0.07318318
0.0757952
0.07583782
0.07152882
0.05562253
0.01521097
0.09060958
0.09035649
0.08964364
0.08803896
0.08559609
0.0819948
0.07800765
0.07493957
0.07282683
0.07150763
0.07084025
0.07064573
0.07051052
0.06959043
0.06689153
0.06249431
0.05806586
0.05470437
0.05019276
0.04633328
0.04686954
0.051432
0.05873128
0.06741521
0.07307101
0.07576763
0.07587086
0.0716051
0.05571192
0.01522232
0.09060621
0.09034433
0.08961436
0.0879799
0.08550423
0.08193669
0.0780353
0.07499664
0.0728768
0.07153573
0.07084099
0.07062127
0.07047826
0.06959473
0.06700153
0.06276555
0.05847239
0.05513261
0.05050258
0.0462478
0.04649542
0.05101154
0.05837665
0.06717216
0.0729558
0.07572453
0.07587568
0.07164094
0.05575875
0.01522807
0.09060492
0.09033966
0.08960354
0.08795546
0.08543927
0.08188166
0.07798725
0.0749626
0.07286018
0.0715238
0.07082528
0.07061692
0.07055551
0.0699187
0.06781829
0.06422696
0.06041394
0.05709873
0.05212227
0.0470998
0.04665841
0.05088167
0.05815908
0.06694068
0.07282658
0.07566971
0.07586191
0.07164855
0.05577483
0.01522998
0.0906058
0.09034236
0.0896092
0.08796653
0.08547181
0.08189193
0.07799533
0.07495447
0.0728378
0.07149362
0.07079833
0.0706317
0.07073029
0.07052114
0.06924981
0.06671824
0.0636608
0.06037052
0.05484624
0.04879351
0.04736443
0.05111225
0.05819911
0.06680669
0.07269895
0.07561449
0.07583819
0.07163537
0.05576649
0.01522892
0.09060873
0.09035193
0.08963041
0.08800771
0.08554185
0.08197058
0.07802217
0.07494279
0.07280547
0.07145522
0.07077354
0.07067008
0.07096758
0.07125484
0.07092362
0.06960796
0.06745955
0.06425929
0.05810117
0.05095998
0.04839455
0.05150733
0.05834234
0.06682993
0.07270092
0.07560544
0.07581702
0.07160505
0.05573529
0.01522491
0.09061322
0.09036667
0.08966344
0.08807357
0.08564477
0.08203363
0.0780221
0.07492592
0.07278275
0.07143521
0.07077549
0.07074445
0.07124415
0.07200462
0.07254135
0.07235998
0.07112154
0.06809844
0.06136203
0.05323587
0.04959411
0.05203106
0.05858884
0.0670793
0.07285442
0.07563946
0.07579359
0.0715522
0.05567594
0.0152172
0.09061846
0.09038398
0.0897011
0.0881432
0.08574926
0.08215245
0.07808842
0.0749621
0.07281341
0.07147158
0.07083401
0.0708722
0.0715574
0.07273182
0.0740037
0.07478447
0.0743554
0.07153608
0.06433422
0.05544675
0.05095427
0.05279754
0.05905902
0.06740066
0.07299208
0.07566197
0.07574733
0.07146259
0.05557632
0.01520418
0.09062319
0.09040053
0.08973682
0.08820702
0.08584761
0.08230589
0.07826436
0.07512992
0.07296319
0.07160618
0.07097278
0.07106555
0.071913
0.07344186
0.07532349
0.07689249
0.07713476
0.07448313
0.06691124
0.05749134
0.05238769
0.05371455
0.05962824
0.06771348
0.07310331
0.07565738
0.07566121
0.07131726
0.0554183
0.01518324
0.09062602
0.09041443
0.08977042
0.08826873
0.08594635
0.08248159
0.07851896
0.0753969
0.07320496
0.07181733
0.071175
0.07131276
0.07230701
0.07414749
0.07654399
0.07875838
0.07953492
0.07697822
0.06910125
0.05934756
0.05384544
0.0547338
0.06027223
0.06804428
0.073201
0.07561865
0.07551781
0.07109131
0.05517596
0.01515034
0.09062509
0.09042402
0.08980461
0.08834047
0.0860743
0.08273213
0.07889495
0.07574115
0.07348988
0.07205486
0.07139959
0.07158465
0.07272393
0.0748532
0.07770084
0.08045263
0.08164282
0.07909659
0.07096478
0.06104912
0.05532893
0.05585128
0.06099733
0.06840986
0.0732954
0.07554118
0.07529902
0.07075337
0.05481349
0.01509969
0.09061816
0.09042836
0.08984488
0.08843923
0.08626419
0.08311286
0.07928469
0.07600394
0.07370173
0.07224716
0.07160442
0.07185553
0.07314807
0.07555552
0.07881136
0.08201892
0.08352067
0.08090524
0.07257275
0.06265336
0.05687157
0.05709282
0.06182452
0.06881796
0.07340915
0.07543413
0.07499467
0.07026977
0.05428414
0.01502277
0.09060369
0.09043135
0.08990548
0.08858739
0.08653225
0.08358361
0.0799126
0.07646626
0.0740021
0.07248123
0.07183795
0.07214604
0.07357945
0.07624556
0.07987212
0.08346919
0.08519592
0.08244489
0.07398013
0.06421452
0.05852613
0.05852591
0.06283459
0.06934836
0.07360753
0.07534882
0.07462746
0.06962115
0.0535348
0.01490699
0.09058485
0.09045462
0.09003057
0.08884652
0.08695477
0.08425224
0.08064448
0.07713721
0.07456805
0.0729332
0.0722031
0.07248726
0.07400262
0.07688855
0.08084989
0.08478276
0.08666183
0.08372358
0.07520529
0.06575352
0.06033699
0.06024724
0.06417253
0.07016395
0.07405043
0.07543659
0.07431072
0.06884952
0.05252925
0.0147332
0.09058108
0.09056861
0.09033684
0.08936096
0.08768025
0.08522416
0.08185346
0.0782691
0.07546668
0.07356492
0.07260747
0.072764
0.07430285
0.0773864
0.08167085
0.08590885
0.08788354
0.08471507
0.07621022
0.06721738
0.06228508
0.06233574
0.06603333
0.07153553
0.07506025
0.07603949
0.0743588
0.06816905
0.05131054
0.01447434
0.09065623
0.09094352
0.09104599
0.09035865
0.08892373
0.08666743
0.08314041
0.07939542
0.07624193
0.07394335
0.0726722
0.0726727
0.07425555
0.07758437
0.08223337
0.08678001
0.08881004
0.08536305
0.07688757
0.06843316
0.06419312
0.06472753
0.0685664
0.07382138
0.07712336
0.07773931
0.07541712
0.06818125
0.05018633
0.01410766
0.09096813
0.0918429
0.09232585
0.09187003
0.09062371
0.08852068
0.08505551
0.08078322
0.07668593
0.07366703
0.07200875
0.0719166
0.07366212
0.07735823
0.08245771
0.08733877
0.08939306
0.08560268
0.07708377
0.06910211
0.0656293
0.06698288
0.07154899
0.07714697
0.08054247
0.08103785
0.0783226
0.07013422
0.05047655
0.01374528
0.09172632
0.09311445
0.0934622
0.092902
0.09176609
0.08990317
0.08662406
0.08136408
0.07588331
0.07221326
0.07041362
0.07046891
0.07256329
0.0767467
0.08234757
0.08755706
0.0895996
0.08540844
0.07670813
0.06895855
0.06603585
0.06823599
0.07404636
0.08080464
0.08458385
0.08531828
0.08307794
0.07537859
0.05485671
0.01432729
0.09228589
0.09278455
0.0924127
0.09189155
0.09128949
0.09030695
0.08803715
0.08237872
0.07429158
0.07019338
0.06861455
0.06901446
0.07148802
0.07606054
0.08199758
0.08738751
0.08936162
0.08482503
0.07592977
0.06820461
0.06540606
0.06799992
0.07527948
0.08495901
0.08840402
0.08914783
0.08839609
0.08454906
0.06886661
0.01893277
0.09210895
0.09234045
0.09175255
0.09101861
0.09017882
0.0888326
0.08586008
0.07934097
0.07361345
0.07120971
0.07001343
0.07014168
0.07181745
0.07504636
0.07924145
0.08299975
0.08423472
0.08050514
0.07294134
0.0663642
0.06392886
0.06595416
0.07188846
0.08254571
0.08636076
0.0871996
0.08649203
0.08294203
0.06864007
0.01913994
0.09096701
0.09183989
0.09232084
0.09186164
0.09060795
0.08849574
0.08504246
0.08068964
0.07666519
0.07370001
0.07196854
0.07164009
0.07288221
0.07566682
0.0794252
0.08284215
0.08396998
0.08049547
0.07326368
0.06692599
0.06465458
0.06662908
0.07146262
0.07715553
0.08059446
0.08109453
0.07837245
0.07017619
0.05050608
0.01374715
0.08981126
0.08977821
0.09066437
0.09100602
0.0903534
0.08863475
0.08569895
0.0821095
0.07857126
0.07568453
0.07380092
0.07316674
0.07396429
0.07616594
0.07925716
0.08208127
0.0829369
0.07972686
0.0729221
0.06684001
0.06453956
0.06610255
0.06994198
0.07403751
0.07630035
0.07584141
0.07167736
0.06165958
0.04196676
0.0113984
0.08930437
0.08835517
0.0886908
0.0889589
0.08849692
0.08708957
0.08466484
0.08172259
0.07879242
0.07631602
0.07461988
0.0739581
0.07450942
0.07623874
0.07867789
0.0808396
0.08131861
0.07827884
0.07178743
0.06577023
0.06320343
0.06418289
0.06716764
0.07032934
0.07195109
0.07113209
0.06681978
0.05713439
0.03890185
0.01098756
0.08914628
0.08773615
0.08753609
0.08739978
0.08672376
0.08527518
0.08306611
0.08048947
0.07800328
0.07593576
0.07453409
0.07399986
0.07446209
0.07583953
0.07767401
0.07913351
0.07914196
0.07617226
0.06989878
0.06384839
0.06099991
0.06155327
0.0640914
0.06695071
0.06852369
0.06797421
0.06431054
0.05573762
0.03885561
0.01126132
0.08911603
0.08752878
0.08702529
0.08656194
0.08561171
0.08396006
0.08168562
0.07922068
0.07696947
0.07517844
0.07401666
0.07361538
0.074026
0.07508366
0.07629816
0.07697666
0.07641099
0.07344288
0.06738378
0.06136418
0.05843869
0.05892818
0.06150845
0.06458792
0.06651069
0.06652472
0.06368213
0.05613409
0.0400059
0.01159371
0.08912038
0.08747376
0.08682157
0.08615776
0.08499876
0.08313826
0.08076609
0.07831867
0.07616246
0.07450515
0.07346722
0.07312012
0.07342854
0.07411436
0.0746178
0.07438406
0.0731326
0.07013876
0.06437555
0.05856461
0.05585947
0.05663998
0.05960088
0.06316105
0.06556857
0.0661591
0.06400091
0.05715759
0.04132802
0.01184508
0.08912807
0.08746016
0.08673292
0.0859519
0.08465473
0.08263136
0.08016995
0.07773056
0.07561991
0.07401808
0.07302202
0.07265778
0.07279862
0.07302639
0.07268105
0.07137245
0.0693369
0.06633653
0.06100072
0.05561729
0.053414
0.05472922
0.0582249
0.06232512
0.06519495
0.06626041
0.06459586
0.05819178
0.04243634
0.01201712
0.08913148
0.08745128
0.08668107
0.08583025
0.08444538
0.08230511
0.0797446
0.07727843
0.07518881
0.07362365
0.07265039
0.07224625
0.07218249
0.07187407
0.07053636
0.06800325
0.06513608
0.06219647
0.05742173
0.05265661
0.05115636
0.05312418
0.05717878
0.06177081
0.06504699
0.06647534
0.06515278
0.05902093
0.0432587
0.01213138
0.08913042
0.08743843
0.08663883
0.08574348
0.08430317
0.08208491
0.07944795
0.07694337
0.07485446
0.07331016
0.07234983
0.07189836
0.07161508
0.07072631
0.06830597
0.06448733
0.06083303
0.05804201
0.05389635
0.04984244
0.0491236
0.05175209
0.05632081
0.0613345
0.06495721
0.06665628
0.06557221
0.05961651
0.04383173
0.01220576
0.0891265
0.08742164
0.08659799
0.08566934
0.08418406
0.08191529
0.07923206
0.0767025
0.07461283
0.07308158
0.07212714
0.07162806
0.07113898
0.06970682
0.06627651
0.06131071
0.05701211
0.05439034
0.05080009
0.04738637
0.0473726
0.05057814
0.05558314
0.06094959
0.06486191
0.06676351
0.06584967
0.0600146
0.04421394
0.01225294
0.08912133
0.08740305
0.08655695
0.08559822
0.08407449
0.08177389
0.07907452
0.07654199
0.07445837
0.07293574
0.07198023
0.07143927
0.07079435
0.06897081
0.06483707
0.05909638
0.05433579
0.05178976
0.0485511
0.04552597
0.04597961
0.04960136
0.05494136
0.06059092
0.06474825
0.0668025
0.06601256
0.06026379
0.04445785
0.0122817
0.08911626
0.08738537
0.08651808
0.08553082
0.08397627
0.08167675
0.07899301
0.07647002
0.07438891
0.07286289
0.07189522
0.07132142
0.07059423
0.06859404
0.06416789
0.05811932
0.05316178
0.05062217
0.04749927
0.04448106
0.04503466
0.048854
0.05441164
0.06027217
0.06462384
0.06679215
0.06609297
0.06040694
0.04460407
0.01229813
0.08911256
0.08737247
0.08648942
0.08548054
0.08390322
0.08161083
0.07894864
0.07643831
0.07435861
0.07282432
0.07184173
0.07125417
0.07053417
0.06859517
0.06430892
0.05845615
0.05365407
0.05111024
0.04787151
0.04442825
0.04463401
0.04838631
0.05402252
0.0600094
0.06450019
0.06675144
0.06611783
0.06047653
0.04468155
0.01230636
0.08911109
0.08736733
0.0864781
0.08546019
0.08386831
0.08156641
0.07890683
0.07640459
0.07432886
0.07278992
0.07179968
0.07122839
0.07062069
0.06901645
0.06538049
0.06030207
0.0559903
0.05335647
0.04971864
0.04544843
0.04485537
0.04825721
0.05381691
0.05982775
0.06439129
0.06669674
0.06610702
0.06049459
0.04470917
0.01230901
0.08911204
0.08737031
0.0864841
0.08546996
0.08388354
0.08158208
0.07891644
0.07640412
0.07431743
0.07276729
0.07177429
0.07124819
0.07084668
0.06982385
0.06732375
0.06356685
0.06000214
0.05717455
0.05282723
0.04742925
0.04569131
0.04849918
0.05384829
0.05978419
0.06432594
0.06664699
0.06607525
0.06047405
0.04469702
0.0123074
0.08911527
0.08738093
0.08650635
0.08550765
0.08393937
0.08164088
0.07896067
0.07643031
0.07432732
0.07276575
0.07177699
0.07131398
0.07115517
0.07078355
0.06953837
0.06730022
0.06468176
0.06174869
0.05658588
0.04999896
0.04697063
0.04901003
0.0540384
0.05984708
0.06433295
0.066624
0.06603232
0.06041912
0.04464714
0.01230161
0.08912027
0.0873974
0.08654092
0.08556663
0.0840264
0.08172695
0.07903144
0.07648597
0.07436964
0.07280071
0.07182248
0.07142831
0.07150128
0.07171215
0.07155491
0.07068085
0.06904368
0.06619678
0.06032808
0.0526922
0.04848765
0.04972917
0.05437529
0.06001673
0.0644085
0.0666204
0.06596966
0.0603202
0.04455104
0.01229049
0.0891262
0.08741709
0.08658211
0.08563554
0.08412692
0.081837
0.07913599
0.07658492
0.07446358
0.07289242
0.07192754
0.07159931
0.07187491
0.07256482
0.0732742
0.07351177
0.07275965
0.07010147
0.06369766
0.05525213
0.05012565
0.05065947
0.0548993
0.06030196
0.06451014
0.06660227
0.06586145
0.0601539
0.04438957
0.01227164
0.08913188
0.08743675
0.08662412
0.08570667
0.08423551
0.08197987
0.07930241
0.07676112
0.07463799
0.07306197
0.07210628
0.07183577
0.07228436
0.07336403
0.07475616
0.07587414
0.07586058
0.0733956
0.06658865
0.05757102
0.05179537
0.05173869
0.05555234
0.06064504
0.06460606
0.06654137
0.06567759
0.05988723
0.04413407
0.01224112
0.08913601
0.08745396
0.08666542
0.08578122
0.08435203
0.082151
0.0795257
0.07701172
0.0748916
0.07330863
0.072358
0.07213804
0.07273753
0.07414358
0.07608742
0.07790669
0.07848414
0.07615825
0.06903079
0.05964642
0.05346519
0.05293419
0.05631176
0.0610354
0.06468914
0.06641914
0.06538643
0.05947797
0.04374451
0.01219298
0.08913697
0.08746662
0.08670758
0.0858687
0.08449673
0.08237867
0.0798314
0.07734776
0.07522435
0.07362691
0.07267572
0.07250053
0.07323608
0.07492667
0.07733353
0.07972274
0.08076152
0.07849731
0.07110523
0.06153372
0.05515702
0.05425919
0.05719639
0.06149517
0.06477687
0.06623294
0.06496176
0.05887805
0.04316865
0.01211848
0.08913319
0.08747457
0.08675824
0.0859897
0.08470733
0.08270987
0.08024084
0.07777293
0.07563617
0.07401656
0.07305818
0.07291981
0.07377726
0.07572138
0.07852877
0.08139027
0.08278094
0.08049926
0.07289499
0.06330474
0.05692333
0.05576733
0.05827011
0.06209054
0.06493524
0.06602373
0.06440803
0.05805097
0.04234774
0.01200492
0.08912486
0.08748643
0.0868439
0.08619094
0.08504436
0.08320699
0.08084075
0.07837598
0.07619753
0.07452746
0.07353281
0.07340183
0.07435221
0.07651667
0.07967481
0.08293243
0.08458255
0.08221252
0.07445571
0.06501287
0.05882105
0.05754995
0.05966951
0.06298585
0.0653321
0.06593754
0.0638229
0.05702374
0.04124429
0.01183423
0.08911974
0.08753933
0.0870438
0.08658901
0.0856479
0.08401361
0.08175217
0.07928389
0.07702063
0.07522627
0.07411448
0.07392139
0.07491452
0.077264
0.08073579
0.08433217
0.08616429
0.08364419
0.07579438
0.06665494
0.06086385
0.05969441
0.06158703
0.06446334
0.0663034
0.06632373
0.06351774
0.05600981
0.03992888
0.01158458
0.08914925
0.0877447
0.08755117
0.08742187
0.0867535
0.08531851
0.08311596
0.08053841
0.07804916
0.07599004
0.07464843
0.07432081
0.07532429
0.07785341
0.08163478
0.0855402
0.08749284
0.08476294
0.07685308
0.06812835
0.0629437
0.06217644
0.06416494
0.06685754
0.06834684
0.06779704
0.0641622
0.05562398
0.03878535
0.01125398
0.08930671
0.08836207
0.08870311
0.08897722
0.08852184
0.087122
0.08468417
0.0817362
0.07880713
0.07635004
0.07472737
0.07427853
0.07534751
0.07812685
0.08227087
0.0864919
0.08851961
0.08550986
0.07750884
0.06920506
0.0647451
0.06468292
0.06723294
0.07025804
0.07180813
0.07098481
0.06669312
0.05703506
0.03883993
0.01098182
0.08981307
0.08978353
0.09067357
0.09101944
0.09037272
0.08866506
0.08573261
0.08211737
0.07854863
0.0756758
0.07388086
0.0734752
0.07478273
0.07796239
0.08256792
0.08713407
0.08920115
0.08582669
0.07762045
0.06958746
0.06576411
0.06651342
0.07001017
0.07399344
0.07619986
0.0757346
0.0715832
0.06158308
0.04191719
0.0113943
0.09096821
0.09184316
0.09232621
0.09186991
0.09062177
0.08851788
0.08506418
0.08071458
0.07658125
0.07360603
0.07199687
0.07193101
0.07369077
0.07740407
0.08252839
0.08743507
0.08950219
0.08569788
0.07714988
0.0691351
0.0656406
0.06698469
0.07154816
0.07714684
0.08054058
0.08103551
0.07832015
0.0701317
0.05047442
0.013745
0.09210929
0.09234124