/*--------------------------------*- C++ -*----------------------------------*\
| =========                 |                                                 |
| \\      /  F ield         | OpenFOAM: The Open Source CFD Toolbox           |
|  \\    /   O peration     | Version:  2506                                  |
|   \\  /    A nd           | Website:  www.openfoam.com                      |
|    \\/     M anipulation  |                                                 |
\*---------------------------------------------------------------------------*/
FoamFile
{
    version     2.0;
    format      ascii;
    arch        "LSB;label=32;scalar=64";
    class       surfaceScalarField;
    location    "500/airRegion";
    object      phi;
}
// * * * * * * * * * * * * * * * * * * * * * * * * * * * * * * * * * * * * * //

dimensions      [1 0 -1 0 0 0 0];

oriented        oriented;

internalField   nonuniform List<scalar> 
257196
(
0.010852
0.0007313626
0.0007313402
0.01057293
0.00107815
0.001078138
0.01024512
0.001121818
0.001122001
0.009999635
0.001098699
0.001099534
0.01002638
0.001145883
0.001148266
0.01065938
0.001362985
0.001337593
0.01300688
0.001489953
0.001296797
0.02123465
-0.00218761
-0.001697286
0.03480525
-0.007263197
-0.006887123
0.0447155
-0.01131215
-0.01117135
0.05072122
-0.01744023
-0.01731251
0.05281451
-0.02534392
-0.02516559
0.05067044
-0.0348926
-0.03464337
0.04406258
-0.04564463
-0.04529322
0.03313895
-0.05648836
-0.0559944
0.01865304
-0.06548831
-0.06483243
0.002078912
-0.06993004
-0.0691659
-0.01349828
-0.06659421
-0.0658717
-0.02480354
-0.0554488
-0.05490415
-0.03004858
-0.04030245
-0.03995145
-0.02859853
-0.02536841
-0.02514146
-0.02081761
-0.01378979
-0.01343087
-0.01300611
-0.004076046
-0.003976814
-0.009562464
0.00136126
0.001277327
-0.008392105
0.002772989
0.002794568
-0.007930121
0.003725701
0.003738661
-0.007568668
0.004668787
0.004675394
-0.006800099
0.005601185
0.005604497
-0.004701274
0.005899574
0.005901173
0.000448351
0.0004490106
0.01964142
0.0006504997
0.002268357
0.01947201
0.001059429
0.003342568
0.01923453
0.001158231
0.003417112
0.01914087
0.001139083
0.003094099
0.01953494
0.001128189
0.002529531
0.02115065
0.001179646
0.001397221
0.0256397
0.0005913411
-0.001526054
0.03370132
-0.003886349
-0.005526486
0.04256239
-0.00952268
-0.008943356
0.04994901
-0.01386274
-0.01347047
0.05440268
-0.01905235
-0.02003892
0.05539518
-0.02555063
-0.02839107
0.0524657
-0.03338678
-0.03832917
0.04531944
-0.04223465
-0.04932539
0.03406207
-0.05120229
-0.06024954
0.01940299
-0.05865859
-0.06922147
0.002788172
-0.0622615
-0.07363802
-0.01295873
-0.05930858
-0.07034501
-0.02484651
-0.04977625
-0.05909006
-0.03120139
-0.03695156
-0.04353392
-0.03180799
-0.02424224
-0.02777529
-0.02800322
-0.01369322
-0.01484267
-0.02139859
-0.005191558
-0.006033314
-0.01693547
0.0002126377
0.0009190441
-0.01477963
0.002128155
0.006586158
-0.01360066
0.00335662
0.0102509
-0.01246388
0.004368262
0.01343741
-0.01044956
0.005166588
0.01708811
-0.005484875
0.005144464
0.02193542
0.0002061878
0.02924531
0.0236001
0.0004971905
0.003607846
0.0235847
0.0008819908
0.005443504
0.02357962
0.001021053
0.005578655
0.02383419
0.001044908
0.004902392
0.02482633
0.001064578
0.003556245
0.02751753
0.00109732
0.0009659366
0.03400133
-0.0003108049
-0.004756976
0.04366213
-0.004953161
-0.008702091
0.05112091
-0.009897398
-0.01103506
0.05645964
-0.01430011
-0.0162357
0.05922852
-0.01904108
-0.02350538
0.05889663
-0.02464028
-0.03253575
0.05497139
-0.03122987
-0.04304327
0.04714105
-0.03860298
-0.05444677
0.03546702
-0.04606159
-0.0656164
0.02058668
-0.05224951
-0.07472124
0.003840283
-0.05515255
-0.07920446
-0.01216913
-0.05247093
-0.0759101
-0.02464467
-0.04414304
-0.06435592
-0.03197664
-0.03305535
-0.04818345
-0.03387324
-0.02204183
-0.03146072
-0.03096607
-0.01271305
-0.01738032
-0.02439475
-0.005340836
-0.007794209
-0.01946034
-0.0002810317
0.001424616
-0.0167622
0.00168711
0.0103762
-0.01493424
0.002936924
0.0167388
-0.01295835
0.003891917
0.02247046
-0.009803108
0.004528233
0.02907837
-0.003166911
0.004392068
0.03770178
0.0009896937
0.04984359
0.02547327
0.0003455536
0.004634725
0.02552147
0.0006571521
0.007163158
0.0257034
0.000803278
0.007396977
0.02633381
0.0008614279
0.006387352
0.02802595
0.0009252975
0.004228933
0.03184271
0.0009533233
0.0003964558
0.03966265
-0.001061258
-0.006846417
0.05012852
-0.005631265
-0.01127968
0.05744253
-0.009742469
-0.01368223
0.06188892
-0.01373782
-0.01938501
0.06361703
-0.01803793
-0.02727078
0.06229808
-0.02294955
-0.03689232
0.05754849
-0.02859103
-0.04788425
0.04911312
-0.03481992
-0.05961458
0.0370552
-0.04108443
-0.07096692
0.02196172
-0.04625375
-0.08016825
0.005079112
-0.04858287
-0.08470676
-0.01117454
-0.04608217
-0.08143212
-0.0240985
-0.0386688
-0.06963592
-0.03203543
-0.02896419
-0.05295957
-0.03452165
-0.01939342
-0.03537617
-0.03184485
-0.01131538
-0.02009328
-0.02510178
-0.005005586
-0.009048332
-0.01977244
-0.0004714428
0.002331449
-0.01667015
0.001345033
0.01397431
-0.01436441
0.002475565
0.0227676
-0.0118722
0.003293736
0.03083576
-0.008274537
0.003765544
0.03979749
-0.001297974
0.00357016
0.05057066
0.001097092
0.06362575
0.02638903
0.0002252051
0.005351732
0.02644406
0.0004531269
0.008430852
0.02675093
0.000580816
0.008774335
0.0277163
0.0006468529
0.007489612
0.03012014
0.0007366777
0.004590746
0.03513966
0.0008709661
-0.0006384528
0.04414811
-0.00190386
-0.008417874
0.05476035
-0.006011759
-0.01311869
0.06193675
-0.009328134
-0.01629626
0.06596071
-0.01276639
-0.02261982
0.06709384
-0.01656651
-0.0310721
0.06513456
-0.0208505
-0.04117412
0.05981171
-0.02569621
-0.05251542
0.05094111
-0.03098602
-0.06444465
0.03860427
-0.03627284
-0.07588136
0.02335129
-0.04060267
-0.08512027
0.006356793
-0.04244807
-0.08969029
-0.01008894
-0.04007153
-0.08644647
-0.02329894
-0.03341221
-0.07448045
-0.03154103
-0.02491669
-0.05745497
-0.03424236
-0.01667381
-0.03918394
-0.03158183
-0.009809006
-0.0227767
-0.02469042
-0.00450447
-0.01016824
-0.0191176
-0.0005506519
0.00316325
-0.01574219
0.001035298
0.01700203
-0.01315269
0.001992633
0.02786317
-0.01044428
0.002653039
0.03783494
-0.006821598
0.002988649
0.0484373
-1.448755e-06
0.002772862
0.06030122
0.0009473332
0.07299402
0.02684768
0.0001402202
0.005817703
0.02688836
0.0002961126
0.009286934
0.02726851
0.0003985659
0.009715044
0.02845913
0.0004748428
0.008209701
0.03150829
0.0005740208
0.004681778
0.03823349
0.0005500698
-0.002190449
0.04853254
-0.00210189
-0.009940604
0.05815195
-0.005949417
-0.01422667
0.06498663
-0.008801774
-0.01878382
0.06879547
-0.01169133
-0.02578302
0.0695883
-0.01492632
-0.03472954
0.06724077
-0.01859795
-0.04522028
0.06156331
-0.0227295
-0.05680153
0.0524316
-0.02720832
-0.06882542
0.0399419
-0.03166156
-0.08026647
0.02460923
-0.03527413
-0.08949139
0.007553109
-0.03669827
-0.09406014
-0.009012311
-0.03441544
-0.09083041
-0.02236109
-0.02843513
-0.07874448
-0.03070167
-0.02107055
-0.06151759
-0.03343384
-0.01409043
-0.04276521
-0.03074023
-0.008376638
-0.02542908
-0.02379991
-0.003989007
-0.01141962
-0.01814066
-0.0005917796
0.003600054
-0.01461057
0.0007444447
0.0192149
-0.01188706
0.001523129
0.03177975
-0.009144385
0.00203898
0.04323929
-0.00566598
0.002275174
0.0549664
0.0008626677
0.002077854
0.06740077
0.0007522938
0.07938426
0.02708713
8.342371e-05
0.00610185
0.0271222
0.0001829752
0.009819973
0.02757598
0.0002557723
0.01029123
0.02900989
0.0003208561
0.008577655
0.03262451
0.0003957437
0.004459309
0.04037825
0.0002622709
-0.003762862
0.05167062
-0.002212675
-0.01124064
0.06093225
-0.005548737
-0.01523706
0.06735136
-0.008012217
-0.02087169
0.07082949
-0.01044301
-0.02860418
0.07131339
-0.01317498
-0.03807712
0.06868235
-0.01629392
-0.04891885
0.06278256
-0.01979022
-0.06067804
0.05351744
-0.02355709
-0.07273464
0.04097885
-0.02728121
-0.08413395
0.02563773
-0.03026293
-0.09331304
0.008566896
-0.03131229
-0.09784389
-0.00805064
-0.02911595
-0.09458012
-0.0214164
-0.02379545
-0.08239655
-0.02971578
-0.01752614
-0.06510139
-0.03239079
-0.01174857
-0.04608317
-0.02968132
-0.007095949
-0.02806791
-0.02279155
-0.003513553
-0.01291853
-0.01716394
-0.0006140284
0.003514009
-0.01356287
0.0004837169
0.02056174
-0.01079512
0.00110072
0.03452157
-0.008103458
0.001497388
0.04714843
-0.004818508
0.001667633
0.05968154
0.001421633
0.001508046
0.07245052
0.0005705459
0.08378206
0.02721719
4.661382e-05
0.006262827
0.02725864
0.0001031229
0.01012017
0.02778839
0.0001419696
0.01059235
0.02945813
0.0001624762
0.00867612
0.03357714
0.0001390883
0.004006397
0.04210804
-0.0001696851
-0.005322477
0.05420769
-0.002141614
-0.01246628
0.06320375
-0.004649218
-0.01616272
0.06913384
-0.006828147
-0.02264518
0.07222393
-0.008971261
-0.03110392
0.07241174
-0.0113318
-0.04109196
0.06955717
-0.01398711
-0.05224409
0.06351857
-0.01692908
-0.06413569
0.05420514
-0.02006637
-0.07618971
0.04168755
-0.02313939
-0.08752901
0.02638229
-0.02555213
-0.09664841
0.009321657
-0.02626666
-0.1011018
-0.007296276
-0.0241774
-0.09773179
-0.02058033
-0.01953858
-0.08545634
-0.02874138
-0.01434259
-0.06821092
-0.03131761
-0.009691248
-0.04912836
-0.02862259
-0.005985802
-0.03068363
-0.02185087
-0.003088459
-0.01466764
-0.01633104
-0.0006161232
0.002929453
-0.01270491
0.0002672302
0.02113528
-0.009934565
0.0007468469
0.03624805
-0.007319494
0.001050058
0.04981119
-0.004218661
0.001178587
0.06295896
0.001765284
0.001067361
0.07596436
0.0004102605
0.0867905
0.02728574
2.446964e-05
0.006344077
0.02732978
5.348568e-05
0.01026245
0.0278963
6.91037e-05
0.01070195
0.02966235
6.064306e-05
0.008611192
0.03393415
-1.673231e-05
0.003560328
0.04263158
-0.0004254854
-0.006386967
0.05500172
-0.002025832
-0.01378648
0.06412656
-0.003883291
-0.01767511
0.06995565
-0.00568171
-0.02461096
0.07289083
-0.007520792
-0.03352481
0.07292141
-0.009527468
-0.0438602
0.06994241
-0.0117522
-0.05522605
0.06384095
-0.01418476
-0.0671941
0.05453727
-0.016745
-0.07922205
0.04207977
-0.01921796
-0.09050167
0.02682673
-0.02110341
-0.09955978
0.009780259
-0.02152549
-0.1038951
-0.006798155
-0.01960001
-0.1003413
-0.01992032
-0.01569713
-0.08798275
-0.02787757
-0.01154698
-0.07089087
-0.03033775
-0.007921539
-0.05190925
-0.02768086
-0.005034161
-0.0332441
-0.02105542
-0.002707225
-0.01660215
-0.01569218
-0.0005945947
0.001968459
-0.01205519
0.0001010676
0.02110077
-0.009293241
0.0004688944
0.03717944
-0.006749621
0.0007000777
0.05151029
-0.003798469
0.0008011128
0.06515075
0.002001452
0.0007317923
0.07834603
0.0002835962
0.08882763
0.02732294
1.307716e-05
0.006377417
0.02736967
2.940131e-05
0.01030809
0.02795451
3.934029e-05
0.01069538
0.0297581
3.432302e-05
0.008452697
0.03406537
-3.656062e-05
0.003124174
0.04275505
-0.0004880957
-0.007261669
0.05518189
-0.001882612
-0.01503113
0.06439811
-0.003297993
-0.01923322
0.07023439
-0.004706127
-0.02651555
0.07310673
-0.006191443
-0.03574507
0.07304836
-0.007819197
-0.04632397
0.06999478
-0.009613492
-0.05783583
0.06386467
-0.01155573
-0.06984662
0.05459165
-0.01356967
-0.08184433
0.04220244
-0.01547402
-0.09307854
0.02699898
-0.01686431
-0.1020788
0.009965025
-0.01704941
-0.106262
-0.006537244
-0.01538288
-0.102476
-0.01944074
-0.01228458
-0.09007468
-0.02716424
-0.009132369
-0.07322445
-0.02951239
-0.006410791
-0.05445368
-0.02691082
-0.004209364
-0.03570972
-0.02042276
-0.002364384
-0.01862459
-0.01524984
-0.0005999543
0.0008450598
-0.01159342
-1.905359e-05
0.02064279
-0.008835739
0.0002640342
0.03753824
-0.006346616
0.0004395208
0.05250606
-0.003508017
0.0005206437
0.066553
0.002160395
0.0004830835
0.07991433
0.0001881577
0.0901788
0.02734812
9.000998e-06
0.0063852
0.02740362
2.437306e-05
0.0103028
0.02800958
4.671607e-05
0.01063076
0.02984358
8.259369e-05
0.008252643
0.03415898
9.865875e-05
0.002695787
0.04284961
-0.0004494147
-0.008025765
0.05530311
-0.001783793
-0.01609294
0.0645369
-0.002848459
-0.02058125
0.07034265
-0.003857836
-0.02814549
0.07314288
-0.004956231
-0.03762217
0.07299824
-0.006184772
-0.0483896
0.06987419
-0.007545345
-0.06001419
0.06371437
-0.009008048
-0.07205878
0.05446438
-0.01049634
-0.08403631
0.04213381
-0.01185728
-0.0952381
0.02697693
-0.01278848
-0.1041779
0.009968718
-0.01280994
-0.1081998
-0.006423256
-0.01151734
-0.1042136
-0.01909196
-0.009278928
-0.09186201
-0.02660048
-0.007051236
-0.075317
-0.02886736
-0.005102444
-0.05679778
-0.02633981
-0.003464754
-0.03803809
-0.02001596
-0.002024297
-0.02061079
-0.01495001
-0.0005851206
-0.0005518312
-0.01128321
-9.028151e-05
0.01995013
-0.008522239
0.0001250242
0.03752241
-0.006069368
0.0002557558
0.05301702
-0.003310677
0.0003201552
0.06740076
0.002265575
0.0003040311
0.08090972
0.0001188152
0.09104766
0.02737445
8.481653e-06
0.006382287
0.0274529
2.830955e-05
0.0102781
0.02810845
7.257218e-05
0.0105471
0.03002434
0.0001774847
0.008030551
0.03442345
0.0003588581
0.002263535
0.04321495
-0.0003758342
-0.008640893
0.05569343
-0.001754632
-0.01684935
0.06482446
-0.002419497
-0.02156347
0.07050694
-0.003022895
-0.02937326
0.07318099
-0.003734199
-0.03905617
0.07292239
-0.004569089
-0.04997978
0.06971157
-0.005505952
-0.06169935
0.06350702
-0.006505063
-0.0737757
0.05426278
-0.007490891
-0.08573668
0.04197884
-0.008339749
-0.0968986
0.02687827
-0.008858911
-0.1057692
0.009929852
-0.008792255
-0.1096801
-0.006333192
-0.00796961
-0.1056373
-0.01880654
-0.006612718
-0.09347086
-0.02616912
-0.005222192
-0.07725875
-0.02840607
-0.003926879
-0.05896455
-0.02596648
-0.002754962
-0.04018308
-0.019828
-0.001651999
-0.02245596
-0.01476241
-0.0004849569
-0.002129551
-0.01109157
-0.000111186
0.01917642
-0.008318707
4.18094e-05
0.03729612
-0.005885871
0.000133928
0.05321732
-0.003180363
0.0001824267
0.06787388
0.002333223
0.0001788228
0.08150998
7.003276e-05
0.09158204
0.02741007
6.580232e-06
0.006377589
0.02753738
2.338972e-05
0.01025437
0.02832635
6.289544e-05
0.01046787
0.03056132
0.000167964
0.007768889
0.03553742
0.0003923843
0.00173771
0.044681
-0.0003078201
-0.009011734
0.05675083
-0.001357523
-0.01703194
0.06544745
-0.001688803
-0.02203913
0.07083275
-0.002015242
-0.03012493
0.0733036
-0.002427833
-0.04000644
0.07289851
-0.002919536
-0.05106139
0.06958851
-0.003468607
-0.06285477
0.06333155
-0.004034518
-0.07495053
0.05408474
-0.004548504
-0.08688607
0.04184619
-0.004920904
-0.09799436
0.02682486
-0.0050729
-0.1068017
0.00997749
-0.004974838
-0.1106925
-0.006167619
-0.004673873
-0.1067987
-0.01853604
-0.004187496
-0.09496308
-0.02585661
-0.00355335
-0.07908048
-0.02812225
-0.002821714
-0.06094177
-0.02576805
-0.002054949
-0.04208952
-0.01974564
-0.001267571
-0.02408809
-0.01468595
-0.0003723577
-0.003432042
-0.01099183
-8.857283e-05
0.01843338
-0.008199277
4.523783e-06
0.03698779
-0.005772565
5.903188e-05
0.05323898
-0.003098974
9.064381e-05
0.0681064
0.00237456
9.275324e-05
0.08184535
3.646148e-05
0.0918894
0.02743891
2.540872e-06
0.00637438
0.02760835
8.03064e-06
0.01023902
0.02851627
1.563487e-05
0.01041358
0.03109612
2.108195e-05
0.007561357
0.03683833
-6.984804e-05
0.001301872
0.0463432
-0.0001640583
-0.009258587
0.05777935
-0.0004169022
-0.01683314
0.06600646
-0.0006238695
-0.02221459
0.07112625
-0.0008423419
-0.0305212
0.0734256
-0.001040579
-0.04053432
0.07290331
-0.001243126
-0.05166794
0.06951796
-0.00144619
-0.06349563
0.06322536
-0.001616036
-0.07558292
0.05398753
-0.001693867
-0.08747069
0.04181119
-0.001624525
-0.09850507
0.02690885
-0.001441304
-0.1072604
0.01021248
-0.001332305
-0.1112357
-0.005844381
-0.001539645
-0.1077122
-0.01823377
-0.001879725
-0.09634285
-0.02564344
-0.001943163
-0.08076367
-0.02801006
-0.001725551
-0.062687
-0.02574143
-0.001346459
-0.04368992
-0.0197695
-0.0008962836
-0.02541498
-0.0146935
-0.0002572044
-0.004454492
-0.01096622
-1.162216e-05
0.01781472
-0.008145418
2.928175e-06
0.03669118
-0.005713149
1.638333e-05
0.05317696
-0.003054289
2.939606e-05
0.06819288
0.002397002
3.250276e-05
0.0820066
1.293795e-05
0.09204449
0.02744554
-5.275517e-07
0.006373468
0.02761679
-1.710456e-06
0.01023409
0.0285087
-3.899369e-06
0.01040043
0.03091462
5.411493e-05
0.007575927
0.03597159
0.0003179383
0.001357424
0.04541505
-0.0003830013
-0.009321575
0.05752923
-0.000350566
-0.0173036
0.06602397
0.0001262217
-0.02246951
0.07116826
0.0002740071
-0.03070435
0.07344066
0.0003266499
-0.04072043
0.07288372
0.0004048345
-0.05185953
0.06947228
0.0005240124
-0.06367355
0.06317305
0.0007185481
-0.075721
0.05396486
0.001038256
-0.0875343
0.04188345
0.001506488
-0.09846261
0.02716916
0.001993304
-0.1071596
0.01070617
0.002132126
-0.1113078
-0.005282733
0.0015231
-0.1083555
-0.0178369
0.0004588921
-0.0975675
-0.0254914
-0.0002650106
-0.08225454
-0.02806398
-0.0005512563
-0.06413948
-0.02593214
-0.0005743526
-0.04490718
-0.01998388
-0.0005405409
-0.02632593
-0.01482793
-0.0001494033
-0.005120799
-0.01102198
0.0001049473
0.01736138
-0.008151635
1.812271e-05
0.03645982
-0.005698916
-1.18902e-05
0.05309141
-0.003038961
-1.769043e-05
0.06819409
0.002405008
-1.519591e-05
0.0820525
-5.687034e-06
0.09209585
0.02744141
-3.60335e-06
0.006375883
0.02761244
-1.34227e-05
0.01024177
0.02852435
-3.652422e-05
0.01041928
0.03129673
-8.844522e-05
0.007557871
0.0379718
-0.0001598467
0.0005117315
0.04795483
0.0001831588
-0.009385802
0.05804101
0.0008023459
-0.01623973
0.06598417
0.001110763
-0.0223199
0.07108974
0.00135989
-0.03062819
0.07337067
0.001644507
-0.04058736
0.0728283
0.001991962
-0.05167929
0.06942692
0.002419404
-0.06344529
0.06314012
0.002955981
-0.07543622
0.05396915
0.00363771
-0.08716172
0.04199636
0.004454499
-0.09795432
0.02751297
0.005204821
-0.1065636
0.01135295
0.005410296
-0.1109164
-0.004543267
0.004567418
-0.1086451
-0.0173411
0.002942759
-0.09853156
-0.0253702
0.001600545
-0.08345916
-0.02828233
0.0008119323
-0.06521984
-0.0264999
0.0004435681
-0.04564068
-0.02100149
0.000166493
-0.0265217
-0.01556294
-8.446302e-05
-0.005370487
-0.01128719
0.0001044088
0.01691043
-0.008238242
-2.263583e-05
0.03629552
-0.005727337
-6.042391e-05
0.05301067
-0.003049163
-6.940762e-05
0.06814052
0.002401066
-6.378571e-05
0.08201233
-2.457953e-05
0.09206732
0.02742306
-5.65374e-06
0.006381363
0.02756909
-2.121676e-05
0.01026062
0.02842182
-5.894181e-05
0.01046728
0.03107384
-0.0002128501
0.007683915
0.03758323
-0.0006362129
0.0007444974
0.04740171
0.0007225136
-0.009176011
0.05755441
0.001870443
-0.01612863
0.0656203
0.002000093
-0.02210571
0.07084428
0.002344438
-0.03029586
0.07321793
0.002872965
-0.04014967
0.0727406
0.003500631
-0.05115481
0.06937762
0.004241547
-0.06285538
0.06311018
0.00511641
-0.07479376
0.05396221
0.006142428
-0.08644685
0.04206493
0.007273357
-0.09711403
0.02776978
0.008257245
-0.1056252
0.01188846
0.00856011
-0.1101464
-0.003881013
0.00762136
-0.1084898
-0.01687114
0.005590544
-0.09904151
-0.02523564
0.003660901
-0.08422026
-0.02839956
0.002308763
-0.06588428
-0.02681142
0.001563525
-0.04603932
-0.02187763
0.001215403
-0.02646424
-0.0161981
0.0005029741
-0.005472559
-0.01143661
-0.0002088507
0.01674359
-0.008286669
-0.0001161632
0.03627128
-0.005767732
-0.0001171624
0.05294209
-0.003076057
-0.0001328123
0.06803183
0.002387476
-0.0001230067
0.08188631
-4.763207e-05
0.09195857
0.02739604
-6.56893e-06
0.006389351
0.02749982
-2.161568e-05
0.01028939
0.02823414
-5.414218e-05
0.01054024
0.03031057
-0.0001295747
0.007941436
0.03488409
-0.0002201851
0.002015439
0.04391972
0.0004424221
-0.008708648
0.05619411
0.00173794
-0.01689721
0.06505161
0.002478015
-0.02176928
0.07051798
0.003194428
-0.02966403
0.07303816
0.004010152
-0.03938479
0.07265281
0.00494746
-0.05028031
0.06933942
0.006022225
-0.06191176
0.06308425
0.007249293
-0.07381572
0.05392782
0.008626206
-0.08543833
0.04204322
0.01006866
-0.09604026
0.0278405
0.01128339
-0.1044927
0.01213949
0.01170519
-0.1091301
-0.003514027
0.01074039
-0.1079096
-0.0166158
0.008394358
-0.09899032
-0.02520789
0.005882496
-0.08438159
-0.02848606
0.003874452
-0.06597334
-0.02659896
0.002517587
-0.04600974
-0.02055347
0.001540889
-0.02677869
-0.01513084
0.0004444173
-0.005128634
-0.01125961
-1.422807e-06
0.01739683
-0.00833027
-0.0001156155
0.03638636
-0.005831846
-0.0001828594
0.05285872
-0.003125482
-0.0002179036
0.06784427
0.002361495
-0.0002039734
0.08165006
-7.927345e-05
0.09174914
0.02736552
-7.559383e-06
0.006397984
0.027429
-1.943401e-05
0.0103228
0.02805657
-3.439004e-05
0.0106316
0.02992533
-5.250848e-05
0.008180867
0.03426789
-2.77658e-05
0.002512334
0.04299254
0.0004581331
-0.008306658
0.05541863
0.001749227
-0.01646953
0.06453468
0.002871853
-0.02106402
0.07021259
0.003948169
-0.02873449
0.07287785
0.005097965
-0.03826765
0.07258868
0.006376764
-0.04903616
0.06932236
0.007812109
-0.06060274
0.06306322
0.009417878
-0.07249717
0.05386043
0.01117229
-0.08413754
0.04191751
0.01295277
-0.09474366
0.02769707
0.01442237
-0.103191
0.01204828
0.01498372
-0.1079041
-0.003546228
0.01400923
-0.1069296
-0.01671067
0.01137393
-0.0983376
-0.02544988
0.008268819
-0.08383745
-0.0288147
0.005542202
-0.06534014
-0.026871
0.003520739
-0.04525526
-0.02070361
0.001998599
-0.02605931
-0.01527735
0.0005444381
-0.004488613
-0.01137101
3.995799e-05
0.01786571
-0.008457339
-0.0001671146
0.03651109
-0.005951559
-0.0002881584
0.05271668
-0.003211076
-0.0003445498
0.06752819
0.002317177
-0.0003212488
0.08125276
-0.0001249741
0.09139685
0.02734213
-1.25978e-05
0.006403527
0.02738628
-2.80479e-05
0.01035337
0.02797243
-3.672513e-05
0.01072355
0.02977809
-3.030118e-05
0.008406631
0.03406914
3.920021e-05
0.002937133
0.04272517
0.0004480524
-0.007651614
0.05510902
0.001870841
-0.01561287
0.06427467
0.003349861
-0.01998879
0.07003235
0.004759103
-0.02742677
0.07277858
0.006237112
-0.03677
0.07255329
0.007863647
-0.04740861
0.0693138
0.009676978
-0.05891594
0.06302874
0.01168995
-0.0708225
0.05374275
0.01386128
-0.08252315
0.04167868
0.01602589
-0.09319446
0.02734421
0.01779288
-0.101685
0.01163032
0.01851526
-0.1064447
-0.003975659
0.01751567
-0.1055527
-0.01717992
0.01456642
-0.09708131
-0.02599277
0.01083183
-0.08256351
-0.02938436
0.007328688
-0.06395401
-0.02736476
0.004588767
-0.04381989
-0.02104752
0.002508666
-0.02476258
-0.01552816
0.0006543077
-0.003437464
-0.01159409
1.145186e-05
0.01843455
-0.008674392
-0.0002803181
0.03660982
-0.006142081
-0.0004538647
0.05243372
-0.003345275
-0.0005317376
0.06699732
0.002247035
-0.0004907259
0.08060939
-0.0001905577
0.09083104
0.02731738
-2.490178e-05
0.006396515
0.02735265
-5.537021e-05
0.01036011
0.02791655
-7.474523e-05
0.01078991
0.02968669
-7.816829e-05
0.00860865
0.03396244
-4.509921e-05
0.003368992
0.04265176
0.0002675093
-0.00687572
0.05500509
0.002043178
-0.01453218
0.06408497
0.004086333
-0.01864338
0.06984521
0.005752002
-0.02581763
0.07264143
0.007498059
-0.03493835
0.07246703
0.009461049
-0.04542004
0.06924815
0.011666
-0.05685477
0.06292716
0.01411981
-0.06877896
0.05353535
0.01675828
-0.08056668
0.04130695
0.01936685
-0.091346
0.02678958
0.02148532
-0.09991422
0.0109227
0.02239237
-0.1046979
-0.0047556
0.02133598
-0.1037574
-0.01799138
0.01801567
-0.09522813
-0.02681925
0.01359063
-0.08057711
-0.03017297
0.009243835
-0.06184665
-0.0280226
0.005717872
-0.04176336
-0.02148409
0.003031034
-0.02302613
-0.01587569
0.000749469
-0.002104491
-0.01192497
-7.293037e-05
0.0190331
-0.008998199
-0.0004619612
0.03657105
-0.006424814
-0.000696616
0.05188642
-0.00354577
-0.0007985038
0.06612364
0.002140139
-0.0007293797
0.07959403
-0.0002820957
0.08994772
0.02727862
-4.741012e-05
0.006362165
0.02730807
-0.0001063098
0.01031149
0.0278439
-0.0001508434
0.01079101
0.02954593
-0.0001892336
0.008760569
0.03372599
-0.0002841991
0.003807945
0.04244202
-0.0004150989
-0.005888806
0.05460266
0.002481475
-0.01335925
0.06359042
0.005326724
-0.01728023
0.0693983
0.006969055
-0.02402595
0.07228263
0.008878849
-0.03285252
0.07218878
0.01117186
-0.04311611
0.06901426
0.01379179
-0.05443533
0.06267189
0.01673286
-0.06635797
0.0531762
0.01990236
-0.07823752
0.04076848
0.02302726
-0.08914622
0.02603343
0.02556007
-0.09781054
0.00996132
0.02667869
-0.1025971
-0.005827728
0.02552727
-0.1015063
-0.01908845
0.02176148
-0.09277994
-0.02788784
0.01656751
-0.07791038
-0.03115493
0.01130055
-0.05907952
-0.02883583
0.006911442
-0.03917942
-0.02202384
0.003540641
-0.02097615
-0.01635896
0.0007635436
-0.0005738869
-0.01239415
-0.0002178753
0.01950494
-0.009460367
-0.0007203314
0.03623221
-0.00683092
-0.001030968
0.05090256
-0.003838331
-0.001163727
0.06472847
0.001980327
-0.00105587
0.07803002
-0.000405217
0.08859964
0.02720807
-8.403506e-05
0.006278786
0.02723047
-0.0001843963
0.01016308
0.02771095
-0.0002569725
0.0106707
0.02924461
-0.0003182268
0.008810525
0.03273158
-0.0003314357
0.004345702
0.03935966
4.112681e-05
-0.003707826
0.05022477
0.001572498
-0.01200935
0.06153114
0.004954377
-0.01733755
0.06827275
0.007716589
-0.02242465
0.07145311
0.0102099
-0.03060307
0.07154311
0.01291767
-0.04053984
0.06847594
0.01602111
-0.05166917
0.06215784
0.01952054
-0.06354699
0.05259096
0.02330244
-0.07550119
0.04002235
0.02702996
-0.08654055
0.02507113
0.03004946
-0.09530354
0.008779228
0.03141117
-0.1000712
-0.007129556
0.03012457
-0.09875195
-0.02039925
0.02583197
-0.08973333
-0.02913706
0.01978296
-0.0746029
-0.03229257
0.01351666
-0.05573363
-0.02980183
0.008185619
-0.03618532
-0.02276463
0.004059958
-0.01874426
-0.0169834
0.0007610627
0.0006631491
-0.01303495
-0.0004176619
0.01966972
-0.01009906
-0.001058828
0.03538654
-0.007400921
-0.001466101
0.04925876
-0.004259404
-0.001643344
0.062574
0.001744325
-0.001489684
0.07567485
-0.0005627659
0.08658212
0.0270787
-0.000140722
0.006115288
0.02709808
-0.0002968318
0.009855912
0.02751426
-0.0003972996
0.01035662
0.02885086
-0.0004625742
0.008689813
0.03220771
-0.0005029002
0.004691043
0.03948164
-0.0003173325
-0.003001135
0.05019845
0.001749915
-0.01107866
0.05991962
0.005366968
-0.01551375
0.06657962
0.008437633
-0.02060851
0.07005176
0.01139453
-0.02822845
0.07038822
0.01462568
-0.03768257
0.06750586
0.01829932
-0.0485381
0.06128422
0.02244715
-0.06031851
0.05170954
0.0269401
-0.07231651
0.03903257
0.0313705
-0.08347068
0.0239033
0.03495975
-0.0923217
0.007414774
0.03660257
-0.09704813
-0.008590521
0.03514115
-0.09544473
-0.02183412
0.03023711
-0.08608473
-0.03047487
0.02324359
-0.07070175
-0.03350732
0.01590109
-0.05190452
-0.0308701
0.009553268
-0.0329164
-0.02367628
0.004602262
-0.01649946
-0.01776632
0.0007642646
0.001506193
-0.01387175
-0.000663377
0.01931304
-0.01095141
-0.001470786
0.03379543
-0.008182608
-0.00200004
0.04668443
-0.004858992
-0.002245157
0.05935718
0.001401974
-0.002056061
0.0722051
-0.0007424282
0.08360612
0.02684097
-0.0002259078
0.005828242
0.02687107
-0.0004547954
0.009315323
0.02722984
-0.0005831596
0.009766171
0.02838256
-0.0006498202
0.008293105
0.03139156
-0.000740955
0.004818651
0.03815062
-0.0008848485
-0.00192545
0.04825828
0.001752261
-0.009741388
0.05767181
0.005800012
-0.01401442
0.06440006
0.009104958
-0.01850121
0.06807297
0.01250788
-0.02549218
0.06865603
0.01628838
-0.03446466
0.06601365
0.02058341
-0.04500803
0.05997289
0.02546071
-0.05664499
0.0504824
0.03077174
-0.06864544
0.0377823
0.03602137
-0.0798822
0.02254641
0.04027842
-0.08879706
0.005918468
0.04224963
-0.09345915
-0.01012736
0.04057275
-0.09153979
-0.02328206
0.03496391
-0.08183514
-0.03177073
0.02692818
-0.06626151
-0.03466333
0.01843342
-0.04769297
-0.03191929
0.01100109
-0.02950302
-0.02463919
0.005148259
-0.01439722
-0.01868652
0.0007429519
0.001952229
-0.01489333
-0.0009455846
0.01822804
-0.01203261
-0.001936174
0.03121766
-0.009219842
-0.002611973
0.04288286
-0.005705648
-0.002957338
0.05471647
0.0008411363
-0.002749879
0.0672112
-0.0009381554
0.07924813
0.02638297
-0.0003463776
0.00535918
0.02642947
-0.0006595342
0.008451175
0.02671856
-0.0008080659
0.008810581
0.02765119
-0.000874031
0.007548042
0.03000701
-0.0009665982
0.004694335
0.03497782
-0.001086447
-0.0004210377
0.04386626
0.0009624378
-0.008238068
0.05432295
0.005625504
-0.01295637
0.06139554
0.009627544
-0.01609759
0.06526604
0.01354128
-0.02241975
0.06616573
0.01781984
-0.03092294
0.06388272
0.02275933
-0.04110977
0.05816328
0.02845322
-0.05253736
0.04889331
0.03471626
-0.06447284
0.03628907
0.04093416
-0.07573575
0.0210446
0.04598452
-0.08467485
0.004358966
0.04834601
-0.08924934
-0.01164497
0.0464069
-0.08700729
-0.02461473
0.03997548
-0.07700069
-0.03285538
0.03077082
-0.06134704
-0.03555493
0.02103543
-0.04319571
-0.03273695
0.01246112
-0.02604064
-0.02547132
0.005637341
-0.01250904
-0.01961201
0.0006644979
0.00192553
-0.01599927
-0.001257607
0.01628573
-0.01328693
-0.00242295
0.02747063
-0.01051505
-0.003256425
0.03758908
-0.006858979
-0.003737412
0.04826407
-2.044418e-05
-0.003550039
0.06016925
-0.001089145
0.07289947
0.02546683
-0.0004976393
0.004639237
0.02550513
-0.0008827588
0.007175648
0.02566173
-0.001020891
0.007418951
0.02622087
-0.001037443
0.006426885
0.02772034
-0.001030033
0.004339672
0.03110071
-0.0009892822
0.0006432141
0.03870915
0.0002171482
-0.006763974
0.04941917
0.004700272
-0.01136653
0.0568083
0.009732496
-0.01363987
0.06117927
0.01411044
-0.01929655
0.06269327
0.01888012
-0.02722971
0.0610407
0.02455308
-0.03695659
0.05586975
0.0312314
-0.04806086
0.04700145
0.03865837
-0.05982447
0.03463201
0.04605996
-0.07102929
0.01948319
0.05207759
-0.07993812
0.002824154
0.05491601
-0.08440382
-0.01304645
0.05265292
-0.08185941
-0.0257021
0.04522109
-0.07163399
-0.03353062
0.03464293
-0.05605058
-0.03589219
0.0235261
-0.03851315
-0.03297125
0.01376181
-0.02257826
-0.02582396
0.005912653
-0.01077529
-0.02022202
0.0004478117
0.001495229
-0.01690315
-0.001616813
0.01350787
-0.01448691
-0.002897145
0.02252848
-0.0119372
-0.003864107
0.03068824
-0.008309015
-0.004506868
0.03969212
-0.00131775
-0.004375766
0.05049067
-0.000985654
0.06356905
0.02359531
-0.0006506985
0.003609958
0.02357425
-0.001059595
0.005449634
0.02355656
-0.001157234
0.0055893
0.02378454
-0.001132204
0.004919286
0.02472134
-0.001100737
0.003597589
0.02734986
-0.001139581
0.001048839
0.03373233
-0.0008000031
-0.004642628
0.04324196
0.003832367
-0.008650044
0.05061808
0.009558316
-0.01101818
0.05582603
0.0137385
-0.01618695
0.05835736
0.01896878
-0.02354361
0.05766587
0.02559955
-0.03270429
0.05328884
0.03357135
-0.04335091
0.04499204
0.04249518