/*--------------------------------*- C++ -*----------------------------------*\
| =========                 |                                                 |
| \\      /  F ield         | OpenFOAM: The Open Source CFD Toolbox           |
|  \\    /   O peration     | Version:  2506                                  |
|   \\  /    A nd           | Website:  www.openfoam.com                      |
|    \\/     M anipulation  |                                                 |
\*---------------------------------------------------------------------------*/
FoamFile
{
    version     2.0;
    format      ascii;
    arch        "LSB;label=32;scalar=64";
    class       volScalarField;
    location    "3500/air";
    object      nut;
}
// * * * * * * * * * * * * * * * * * * * * * * * * * * * * * * * * * * * * * //

dimensions      [0 2 -1 0 0 0 0];

internalField   nonuniform List<scalar> 
33752
(
0.008245302
0.008209926
0.008178443
0.008154171
0.008134534
0.008117948
0.00810351
0.008090677
0.008079179
0.008068953
0.008060089
0.008052781
0.008047275
0.008043818
0.008042617
0.008043807
0.008047375
0.008053208
0.008061119
0.008070861
0.00808218
0.008094869
0.008108812
0.008124039
0.00814078
0.008159537
0.008181179
0.008207276
0.008240447
0.008277283
0.00820967
0.008154574
0.008111774
0.008081695
0.008058994
0.008040714
0.008025219
0.008011596
0.007999404
0.007988512
0.007979001
0.007971084
0.007965045
0.007961168
0.007959703
0.007960818
0.00796449
0.007970573
0.007978849
0.007989035
0.008000843
0.008014045
0.008028539
0.008044429
0.008062122
0.008082503
0.008107191
0.008139167
0.00818386
0.008240764
0.008177848
0.008111424
0.008058366
0.008021221
0.007993829
0.007972317
0.007954399
0.007938765
0.007924766
0.007912185
0.007901098
0.007891766
0.007884543
0.007879794
0.007877833
0.007878867
0.007882873
0.007889669
0.007898973
0.007910425
0.007923667
0.007938426
0.007954609
0.007972408
0.007992448
0.008016019
0.008045407
0.008084522
0.008139624
0.00820804
0.008153132
0.00808091
0.008020791
0.007977559
0.007945259
0.007919778
0.007898496
0.007879842
0.00786301
0.007847733
0.007834117
0.007822514
0.007813405
0.007807285
0.007804574
0.007805537
0.007810151
0.007818182
0.007829241
0.007842843
0.007858503
0.007875861
0.007894793
0.007915545
0.007938903
0.007966425
0.008000734
0.008045985
0.008108235
0.008182543
0.008132953
0.008057697
0.007992903
0.007944767
0.007907761
0.00787789
0.007852482
0.007829856
0.007809138
0.007790068
0.007772842
0.00775797
0.007746136
0.007738037
0.007734261
0.007735157
0.007740706
0.007750591
0.007764261
0.007781028
0.007800211
0.007821287
0.007844047
0.007868729
0.007896186
0.007928086
0.007967108
0.008017286
0.008084257
0.008161645
0.008115752
0.008038845
0.007970849
0.007918755
0.007877361
0.00784288
0.007812723
0.007785232
0.007759559
0.007735524
0.007713486
0.007694202
0.007678654
0.00766785
0.007662624
0.007663453
0.007670322
0.007682792
0.007700066
0.007721154
0.007745076
0.007771064
0.00779874
0.007828259
0.007860447
0.007896947
0.007940352
0.007994499
0.008064697
0.008143758
0.008100647
0.008022737
0.007952359
0.007896922
0.007851409
0.007812181
0.007776757
0.007743563
0.007711857
0.007681618
0.007653454
0.007628467
0.007608068
0.00759372
0.007586573
0.007587314
0.007595961
0.007611869
0.007633888
0.007660596
0.007690585
0.007722738
0.007756423
0.007791628
0.007829069
0.007870306
0.007917826
0.007975321
0.008047917
0.008127991
0.008087112
0.008008475
0.007936137
0.00787771
0.007828241
0.007784154
0.007743029
0.007703374
0.007664589
0.007626894
0.007591227
0.007559147
0.007532729
0.007513842
0.007504189
0.007504834
0.007515813
0.007536102
0.007564092
0.007597812
0.007635258
0.007674846
0.007715596
0.007757252
0.007800386
0.007846477
0.007897954
0.007958446
0.008033014
0.008113824
0.008074887
0.007995626
0.007921541
0.007860322
0.007806992
0.007757965
0.007710814
0.007664083
0.007617323
0.007571052
0.0075266
0.007486218
0.007452323
0.007427705
0.007414848
0.007415376
0.007429351
0.007455207
0.00749051
0.007532577
0.007578777
0.007626939
0.007675664
0.007724394
0.007773555
0.007824591
0.007879937
0.007943235
0.008019567
0.008101012
0.008063906
0.007984062
0.007908357
0.007844492
0.007787405
0.007733439
0.007680102
0.007625929
0.007570602
0.007514866
0.007460997
0.007411606
0.007369436
0.00733831
0.007321784
0.007322212
0.007339672
0.007371883
0.007415315
0.00746619
0.007521931
0.007579552
0.007636862
0.007693049
0.007748408
0.0078044
0.007863522
0.007929488
0.008007465
0.008089516
0.008054243
0.007973853
0.007896655
0.00783032
0.007769671
0.007710931
0.007651503
0.007589863
0.007525798
0.007460597
0.007397142
0.007336869
0.007284373
0.007246325
0.007228128
0.007228428
0.007247316
0.007286322
0.007339995
0.007401665
0.0074669
0.007534046
0.007600156
0.007663842
0.007725321
0.007786113
0.007848829
0.007917298
0.007996809
0.008079453
0.008046049
0.007965202
0.007886685
0.007818149
0.007754288
0.007691188
0.007626108
0.007557428
0.007485026
0.007411035
0.007336649
0.00726462
0.007208901
0.007169323
0.007148184
0.007148377
0.007170014
0.007210287
0.00726709
0.007340528
0.007416529
0.007492679
0.007567121
0.007637899
0.007705071
0.007770261
0.007836226
0.007906944
0.007987839
0.008071054
0.008039714
0.007958411
0.007878794
0.007808445
0.007741922
0.007675171
0.007605302
0.007530646
0.007450907
0.007368704
0.007284033
0.007208815
0.007148097
0.007102911
0.00707849
0.007078584
0.007103334
0.007149082
0.007210661
0.007287294
0.007373572
0.007457931
0.007539841
0.007616646
0.007688656
0.007757539
0.007826214
0.007898816
0.007980887
0.008064638
0.008035299
0.007953713
0.007873324
0.007801681
0.007733248
0.007663859
0.007590502
0.007511413
0.007426085
0.007337416
0.00724595
0.00716922
0.007102931
0.007053079
0.00702595
0.007025962
0.007053288
0.007103607
0.007170687
0.007248577
0.007341837
0.007432618
0.007520247
0.007601558
0.007677093
0.007748651
0.007819281
0.007893226
0.007976133
0.008060281
0.008033104
0.007951348
0.007870555
0.00779824
0.007728812
0.007658043
0.007582846
0.007501336
0.00741298
0.007320711
0.00722767
0.007148079
0.007078584
0.007026071
0.006997346
0.006997306
0.007026152
0.007079086
0.007149346
0.007230054
0.007324876
0.007419219
0.007509992
0.007593748
0.007671151
0.007744114
0.007815764
0.007890408
0.007973758
0.008058134
0.00803323
0.00795148
0.00787069
0.007798379
0.007728954
0.007658187
0.007582994
0.007501489
0.00741314
0.007320873
0.007227822
0.007148233
0.007078742
0.007026236
0.006997517
0.006997478
0.007026321
0.007079248
0.007149502
0.007230206
0.007325031
0.007419374
0.007510146
0.007593904
0.007671311
0.007744278
0.007815933
0.007890584
0.007973943
0.008058333
0.008035666
0.007954099
0.007873723
0.007802091
0.007733667
0.007664287
0.007590942
0.007511867
0.007426557
0.007337894
0.007246405
0.007169673
0.007103394
0.007053558
0.007026441
0.007026455
0.007053773
0.007104079
0.007171144
0.007249025
0.007342294
0.007433075
0.007520704
0.007602022
0.007677574
0.007749147
0.007819794
0.007893756
0.007976689
0.008060882
0.008040299
0.007959032
0.00787944
0.007809109
0.007742603
0.007675868
0.007606016
0.007531386
0.007451676
0.007369488
0.007284824
0.007209568
0.007148852
0.00710368
0.007079272
0.007079368
0.007104107
0.007149837
0.007211402
0.007288042
0.007374319
0.007458677
0.007540591
0.007617419
0.007689456
0.007758364
0.007827072
0.007899702
0.0079818
0.008065628
0.008046881
0.007966045
0.00788755
0.00781904
0.007755205
0.007692131
0.007627079
0.007558429
0.007486068
0.007412109
0.007337733
0.007265713
0.007209947
0.007170366
0.007149233
0.007149422
0.007171048
0.00721131
0.00726812
0.007341555
0.007417548
0.007493689
0.007568135
0.007638936
0.007706138
0.007771355
0.007837356
0.007908107
0.007989044
0.008072339
0.008055232
0.007974859
0.007897692
0.007831396
0.007770787
0.007712089
0.007652703
0.007591106
0.007527085
0.007461942
0.007398517
0.007338264
0.007285775
0.007247647
0.007229441
0.00722973
0.007248606
0.007287641
0.007341298
0.007402951
0.007468168
0.007535298
0.007601409
0.007665108
0.007726606
0.007787416
0.007850153
0.007918649
0.007998198
0.008080903
0.008064988
0.00798517
0.007909511
0.007845702
0.007788676
0.007734771
0.007681496
0.007627381
0.007572115
0.007516437
0.007462624
0.00741327
0.007371113
0.007339981
0.007323441
0.007323844
0.007341275
0.00737346
0.007416865
0.007467711
0.007523424
0.00758103
0.007638336
0.007694527
0.007749895
0.007805895
0.007865031
0.007931016
0.008009024
0.008091119
0.008075998
0.007996772
0.007922749
0.007861608
0.007808365
0.007759426
0.007712362
0.007665714
0.007619031
0.007572831
0.007528441
0.007488109
0.007454241
0.007429628
0.007416759
0.007417259
0.007431197
0.007457015
0.00749228
0.00753431
0.007580482
0.007628626
0.007677342
0.007726068
0.007775227
0.007826265
0.007881618
0.007944928
0.008021284
0.008102763
0.008088183
0.00800959
0.007937332
0.00787901
0.007829659
0.007785695
0.00774469
0.007705147
0.007666465
0.007628858
0.007593263
0.007561246
0.007534861
0.007515983
0.007506319
0.007506936
0.007517877
0.007538123
0.007566068
0.007599747
0.007637161
0.007676725
0.007717457
0.0077591
0.007802224
0.007848308
0.007899786
0.007960285
0.008034871
0.008115711
0.008101611
0.008023753
0.007953477
0.007898174
0.007852816
0.00781375
0.007778487
0.007745443
0.007713871
0.007683746
0.007655672
0.007630753
0.007610394
0.007596062
0.007588906
0.00758962
0.007598225
0.007614086
0.007636057
0.007662719
0.00769267
0.007724789
0.007758446
0.007793626
0.007831049
0.007872273
0.00791979
0.00797729
0.008049902
0.008130005
0.00811655
0.008039705
0.007971833
0.007919906
0.007878706
0.007844431
0.007814478
0.00778718
0.007761678
0.007737787
0.007715862
0.00769666
0.007681162
0.007670379
0.007665147
0.007665947
0.007672774
0.007685192
0.007702412
0.007723448
0.007747321
0.007773264
0.0078009
0.007830385
0.007862545
0.007899027
0.007942425
0.007996576
0.008066791
0.00814588
0.008133542
0.008058357
0.00799371
0.007945776
0.007909003
0.007879383
0.007854225
0.007831834
0.007811326
0.007792434
0.007775347
0.007760576
0.007748804
0.007740732
0.007736953
0.007737822
0.007743325
0.007753153
0.007766762
0.007783467
0.00780259
0.007823611
0.00784632
0.007870959
0.007898382
0.007930259
0.00796927
0.00801945
0.008086437
0.008163853
0.008153488
0.008081349
0.008021401
0.007978403
0.007946377
0.007921187
0.007900197
0.007881819
0.007865234
0.007850166
0.007836715
0.007825232
0.0078162
0.007810115
0.007807406
0.007808342
0.007812907
0.007820876
0.007831866
0.007845397
0.007860988
0.007878282
0.007897155
0.007917859
0.007941178
0.007968674
0.008002969
0.008048219
0.008110482
0.008184817
0.008177978
0.008111649
0.008058785
0.008021905
0.00799482
0.007973635
0.007956043
0.007940717
0.007926995
0.00791465
0.007903752
0.007894557
0.007887424
0.007882719
0.007880763
0.007881771
0.007885726
0.007892457
0.007901686
0.007913061
0.007926228
0.007940917
0.007957039
0.007974786
0.007994786
0.008018327
0.008047699
0.00808681
0.008141923
0.008210363
0.008209611
0.008154626
0.008112043
0.008082253
0.008059884
0.008041955
0.008026808
0.008013516
0.008001621
0.007990983
0.007981675
0.00797391
0.007967969
0.007964143
0.007962687
0.007963778
0.007967398
0.007973415
0.007981615
0.007991721
0.008003453
0.008016584
0.008031017
0.008046855
0.008064508
0.00808486
0.008109531
0.0081415
0.0081862
0.008243123
0.008245134
0.008209889
0.008178639
0.00815467
0.008135375
0.00811915
0.00810507
0.008092575
0.008081383
0.008071418
0.008062763
0.008055611
0.008050209
0.008046806
0.008045617
0.008046784
0.008050302
0.00805607
0.008063905
0.008073569
0.008084815
0.008097436
0.00811132
0.008126499
0.008143203
0.008161934
0.00818356
0.008209649
0.008242822
0.008279668
0.07732082
0.07744429
0.07747308
0.07743215
0.07735467
0.07725849
0.07715291
0.07704344
0.07693422
0.07682933
0.07673315
0.07665039
0.07658568
0.07654316
0.07652594
0.07653565
0.07657241
0.07663467
0.07671939
0.07682246
0.07693921
0.07706479
0.07719452
0.0773239
0.07744821
0.07756125
0.07765283
0.07770408
0.07768054
0.07755626
0.07744361
0.0776172
0.07767036
0.07763538
0.07755461
0.07745065
0.07733517
0.07721481
0.07709434
0.07697834
0.07687172
0.07677971
0.07670752
0.07665978
0.07663991
0.07664971
0.07668935
0.07675711
0.07684958
0.07696217
0.07708964
0.0772266
0.07736783
0.07750832
0.07764272
0.07776368
0.07785865
0.07790399
0.07785606
0.07768143
0.07747026
0.07766826
0.07773599
0.07770214
0.07761292
0.07749439
0.07736052
0.07721943
0.07707699
0.07693883
0.07681098
0.07669992
0.07661207
0.07655317
0.07652747
0.07653722
0.07658257
0.07666138
0.07676941
0.07690099
0.07704963
0.07720871
0.07737187
0.07753305
0.07768577
0.07782125
0.07792465
0.07796895
0.07790659
0.0777076
0.07742599
0.07762996
0.07769889
0.07765831
0.07755475
0.07741526
0.07725512
0.07708377
0.07690853
0.07673664
0.07657602
0.07643522
0.07632273
0.07624614
0.07621111
0.07622067
0.07627498
0.0763711
0.07650341
0.0766644
0.07684551
0.07703803
0.07723373
0.0774249
0.07760367
0.07775992
0.07787759
0.07792869
0.07786534
0.07766045
0.07734424
0.07754491
0.07760546
0.07755061
0.07742628
0.07725904
0.07706445
0.07685292
0.07663334
0.07641512
0.0762089
0.07602629
0.07587894
0.0757772
0.07572885
0.07573813
0.07580516
0.07592584
0.07609247
0.07629475
0.076521
0.07675942
0.07699906
0.07723006
0.07744298
0.07762676
0.07776513
0.07783058
0.07777575
0.07757422
0.07724308
0.07743592
0.07748198
0.07740628
0.07725427
0.07705166
0.07681364
0.07655113
0.07627457
0.075996
0.07572965
0.0754914
0.07529731
0.07516172
0.07509541
0.07510434
0.07518855
0.07534232
0.07555497
0.07581224
0.07609804
0.07639629
0.07669245
0.07697405
0.07723012
0.07744911
0.07761511
0.07770147
0.07766125
0.07746758
0.07713203
0.0773149
0.07734262
0.07724078
0.07705445
0.07680848
0.07651745
0.07619249
0.07584541
0.07549118
0.07514849
0.07483888
0.07458433
0.0744047
0.0743151
0.07432366
0.07443029
0.07462709
0.07489932
0.0752272
0.07558865
0.07596199
0.07632821
0.07667195
0.07698082
0.07724308
0.07744341
0.07755598
0.07753418
0.07735052
0.07701677
0.07718865
0.07719569
0.07706372
0.07683736
0.07654057
0.07618719
0.07578828
0.07535688
0.0749109
0.0744743
0.0740757
0.07374471
0.07350935
0.07339025
0.07339838
0.07353358
0.07378517
0.07413263
0.07454859
0.07500321
0.0754677
0.07591787
0.07633532
0.07670647
0.07701956
0.07725996
0.07740274
0.07740171
0.07722907
0.07690157
0.0770621
0.0770472
0.07688256
0.07661204
0.07625849
0.07583479
0.07535168
0.07482299
0.07426941
0.07372039
0.0732127
0.07278735
0.07248166
0.07232421
0.07233179
0.07250426
0.07282516
0.07326619
0.07378994
0.07435617
0.07492769
0.07547484
0.07597641
0.07641791
0.07678785
0.07707251
0.07724806
0.07726906
0.07710782
0.07679056
0.07693985
0.07690283
0.0767046
0.07638797
0.07597432
0.07547525
0.07490068
0.07426455
0.07358964
0.07290901
0.07226959
0.07172375
0.07132018
0.07110158
0.0711082
0.07134019
0.07175779
0.07231866
0.07297403
0.07367078
0.0743631
0.07501747
0.07561053
0.07612752
0.0765577
0.07688863
0.07709791
0.07714114
0.07699117
0.07668818
0.07682684
0.07676861
0.07653778
0.07617579
0.07570232
0.07512727
0.07445915
0.07371093
0.07290454
0.07207769
0.07128419
0.07056549
0.06997879
0.0695979
0.06960328
0.06999604
0.07059485
0.07132813
0.07213733
0.07298045
0.07380368
0.07457
0.07525669
0.07584985
0.07634005
0.07671653
0.07695857
0.07702309
0.07688372
0.07659914
0.07672823
0.07665096
0.07639056
0.07598704
0.07545829
0.07481227
0.07405559
0.07319885
0.07226061
0.07127991
0.07027188
0.06914507
0.06830913
0.06785845
0.06786168
0.06832041
0.06916768
0.07030983
0.07133441
0.0723318
0.07328641
0.0741613
0.07493665
0.07560097
0.07614669
0.07656489
0.07683664
0.07692023
0.07679018
0.07652747
0.076649
0.07655616
0.07627132
0.07583324
0.07525814
0.07455214
0.07371959
0.0727687
0.07171042
0.07055738
0.06914212
0.06783311
0.06685822
0.06633971
0.06634112
0.06686448
0.06784867
0.06917243
0.07060698
0.07177731
0.07285239
0.07382122
0.07467253
0.07539702
0.07598931
0.07644225
0.07673849
0.07683764
0.07671499
0.07647771
0.07659375
0.0764898
0.07618748
0.07572458
0.07511605
0.07436659
0.07347872
0.07245783
0.07130226
0.06996737
0.06830435
0.06685722
0.06578889
0.06522175
0.06522181
0.06579142
0.06686724
0.0683286
0.07001369
0.0713664
0.07253896
0.07357758
0.07448425
0.07525238
0.07587827
0.07635618
0.07666999
0.07678023
0.07666279
0.07645249
0.07656575
0.07645604
0.07614461
0.07566872
0.07504267
0.07427037
0.07335347
0.07229465
0.07107893
0.06958326
0.06785217
0.06633857
0.06522231
0.06462989
0.06462927
0.06522287
0.06634558
0.06787308
0.06962582
0.07114143
0.07237457
0.07345104
0.07438681
0.07517792
0.07582149
0.07631251
0.07663553
0.07675154
0.07663676
0.07645332
0.07656661
0.07645692
0.07614553
0.07566969
0.07504369
0.07427144
0.07335457
0.07229578
0.07108007
0.06958437
0.06785326
0.06633964
0.06522336
0.06463092
0.06463029
0.0652239
0.06634664
0.06787418
0.06962698
0.07114268
0.07237589
0.07345242
0.07438825
0.07517942
0.07582304
0.0763141
0.07663714
0.07675315
0.07663832
0.07648017
0.07659625
0.0764924
0.07619021
0.07572745
0.07511907
0.07436976
0.07348202
0.07246122
0.0713057
0.06997072
0.06830759
0.06686041
0.06579203
0.06522485
0.06522489
0.06579452
0.0668704
0.0683319
0.07001719
0.07137016
0.0725429
0.07358169
0.07448851
0.0752568
0.07588283
0.07636084
0.07667471
0.07678494
0.07666737
0.07653139
0.07665299
0.07656033
0.07627571
0.07583788
0.07526305
0.07455732
0.07372501
0.07277431
0.07171615
0.07056316
0.06914761
0.06783848
0.06686349
0.06634492
0.06634629
0.06686969
0.06785399
0.069178
0.07061299
0.07178358
0.07285891
0.07382797
0.07467951
0.07540421
0.07599668
0.07644976
0.07674609
0.07684525
0.07672239
0.07660404
0.07673338
0.07665643
0.07639639
0.07599325
0.0754649
0.07481929
0.074063
0.07320658
0.07226858
0.07128805
0.07027998
0.06915277
0.06831663
0.06786585
0.06786902
0.0683278
0.0691753
0.070318
0.07134288
0.07234052
0.07329541
0.07417058
0.07494621
0.07561081
0.07615679
0.07657517
0.07684703
0.07693063
0.07680037
0.07669383
0.07683283
0.07677505
0.07654472
0.07618328
0.07571038
0.0751359
0.07446833
0.07372062
0.0729146
0.07208804
0.07129468
0.07057591
0.06998873
0.06960764
0.06961293
0.07000577
0.07060521
0.07133877
0.07214816
0.0729915
0.07381499
0.07458163
0.07526868
0.0758622
0.07635273
0.07672946
0.07697166
0.07703623
0.07689674
0.07679653
0.07694624
0.0769098
0.07671227
0.0763964
0.07598353
0.07548523
0.0749114
0.07427595
0.07360163
0.07292142
0.07228228
0.0717366
0.07133302
0.07111438
0.07112096
0.07135294
0.07177063
0.07233157
0.07298704
0.07368395
0.07437652
0.07503123
0.07562469
0.07614209
0.07657262
0.07690384
0.0771133
0.07715662
0.0770066
0.07690733
0.07706837
0.07705423
0.07689051
0.076621
0.07626848
0.0758458
0.07536366
0.07483585
0.07428303
0.07373464
0.0732274
0.07280234
0.07249679
0.07233938
0.07234692
0.07251932
0.07284015
0.07328114
0.07380491
0.07437127
0.07494303
0.07549053
0.0759925
0.07643439
0.07680467
0.07708962
0.07726538
0.07728648
0.07712523
0.07702177
0.07719426
0.07720226
0.07707147
0.07684643
0.07655098
0.07619891
0.07580124
0.07537093
0.07492592
0.07449011
0.07409212
0.07376153
0.07352639
0.07340737
0.07341546
0.07355055
0.07380201
0.07414938
0.07456533
0.07502006
0.07548478
0.07593527
0.07635308
0.07672459
0.07703799
0.07727866
0.07742163
0.07742071
0.07724808
0.07713574
0.07731934
0.07734823
0.07724786
0.07706318
0.07681892
0.07652956
0.07620613
0.07586043
0.07550738
0.07516565
0.07485678
0.07460275
0.07442339
0.0743339
0.07434242
0.07444893
0.0746456
0.07491771
0.07524557
0.07560711
0.07598064
0.07634712
0.07669115
0.07700031
0.07726284
0.07746338
0.07757612
0.07755441
0.07737075
0.07724506
0.07743874
0.07748618
0.07741227
0.07726228
0.07706177
0.0768258
0.07656519
0.07629032
0.07601318
0.07574799
0.07551063
0.07531715
0.0751819
0.07511573
0.07512464
0.07520873
0.07536235
0.07557488
0.0758321
0.07611793
0.0764163
0.07671264
0.07699445
0.07725074
0.07746993
0.0776361
0.07772257
0.07768242
0.07748873
0.0773442
0.0775458
0.07760795
0.0775552
0.07743325
0.07726851
0.07707638
0.07686713
0.07664958
0.07643308
0.07622824
0.07604669
0.07590005
0.07579873
0.07575055
0.07575983
0.07582674
0.07594726
0.07611374
0.07631591
0.07654213
0.07678059
0.07702032
0.07725144
0.07746448
0.0776484
0.07778688
0.0778524
0.07779759
0.07759603
0.07742382
0.07762882
0.07769954
0.07766133
0.0775605
0.07742388
0.07726658
0.07709789
0.07692503
0.07675514
0.07659615
0.07645656
0.07634491
0.07626882
0.076234
0.07624358
0.07629776
0.07639369
0.07652581
0.07668664
0.07686764
0.07706012
0.07725581
0.07744701
0.07762584
0.07778215
0.07789987
0.077951
0.07788764
0.07768269
0.0774661
0.07766521
0.07773491
0.07770366
0.07761744
0.07750209
0.0773714
0.07723328
0.07709351
0.07695762
0.0768316
0.07672192
0.07663503
0.07657671
0.07655127
0.07656105
0.07660627
0.07668487
0.07679266
0.07692403
0.0770725
0.07723145
0.07739453
0.07755567
0.07770838
0.07784386
0.07794727
0.07799156
0.07792916
0.07773009
0.07743787
0.07761263
0.07766787
0.07763566
0.0775581
0.07745754
0.07734547
0.0772283
0.07711072
0.07699718
0.07689256
0.07680206
0.07673093
0.07668383
0.07666427
0.07667412
0.07671363
0.07678116
0.07687336
0.0769857
0.07711295
0.07724973
0.07739084
0.07753125
0.07766559
0.0777865
0.07788144
0.07792674
0.07787874
0.07770402
0.07731414
0.07743882
0.07746976
0.07743168
0.07735751
0.07726484
0.07716277
0.07705662
0.0769504
0.07684807
0.07675398
0.07667281
0.07660922
0.0765674
0.07655051
0.07656029
0.07659693
0.07665895
0.07674339
0.07684619
0.0769627
0.07708809
0.07721766
0.07734694
0.07747116
0.07758413
0.07767565
0.07772684
0.07770322
0.07757885
0.165809
0.1658914
0.1658865
0.1657842
0.1656103
0.165388
0.1651333
0.1648586
0.1645754
0.164296
0.1640344
0.1638052
0.1636232
0.1635012
0.163449
0.1634719
0.1635702
0.1637391
0.1639693
0.1642482
0.1645612
0.164893
0.1652293
0.1655564
0.1658615
0.1661302
0.1663443
0.1664784
0.1665042
0.1664306
0.1658873
0.1660241
0.1660559
0.1659638
0.1657811
0.1655376
0.1652542
0.1649463
0.1646276
0.1643122
0.1640161
0.163756
0.1635488
0.1634089
0.1633474
0.1633704
0.1634781
0.1636651
0.1639209
0.1642309
0.1645786
0.1649468
0.165319
0.1656797
0.1660137
0.1663038
0.1665268
0.1666503
0.1666385
0.166509
0.1658751
0.1660485
0.1661058
0.1660131
0.1658058
0.1655199
0.1651813
0.1648095
0.1644217
0.164036
0.163672
0.1633509
0.1630933
0.1629176
0.1628374
0.1628602
0.1629863
0.1632088
0.1635145
0.1638854
0.1643009
0.1647394
0.1651806
0.1656052
0.1659943
0.1663267
0.1665739
0.1666974
0.1666591
0.166492
0.1657629
0.1659465
0.166003
0.1658879
0.1656352
0.1652836
0.1648628
0.1643961
0.1639053
0.1634134
0.1629464
0.1625319
0.1621971
0.1619661
0.1618568
0.161879
0.1620331
0.1623099
0.162692
0.1631555
0.1636733
0.1642174
0.1647612
0.1652802
0.1657511
0.1661486
0.1664406
0.1665859
0.1665476
0.1663697
0.1655773
0.1657518
0.1657838
0.1656233
0.1653026
0.1648606
0.1643291
0.1637349
0.1631046
0.162468
0.1618594
0.1613157
0.1608736
0.1605655
0.1604156
0.160437
0.1606301
0.1609824
0.1614702
0.1620616
0.1627198
0.1634076
0.16409
0.1647357
0.1653166
0.1658038
0.1661633
0.1663534
0.1663392
0.1661701
0.1653419
0.1654951
0.1654846
0.1652584
0.1648474
0.1642898
0.1636181
0.1628619
0.1620533
0.1612301
0.1604374
0.1597246
0.1591414
0.1587316
0.158528
0.1585483
0.1587928
0.1592446
0.1598715
0.1606302
0.1614711
0.1623442
0.1632039
0.1640106
0.164731
0.1653332
0.1657825
0.1660378
0.1660659
0.1659179
0.1650735
0.1651978
0.165132
0.1648237
0.1643021
0.1636043
0.162763
0.1618099
0.1607826
0.1597284
0.1587056
0.15778
0.1570181
0.1564791
0.1562072
0.1562262
0.1565362
0.1571144
0.1579176
0.158887
0.1599562
0.161059
0.1621362
0.163139
0.1640284
0.1647702
0.1653297
0.165667
0.1657502
0.1656311
0.1647847
0.1648756
0.1647459
0.1643427
0.1636938
0.1628343
0.1617962
0.1606131
0.1593277
0.157998
0.1566978
0.1555132
0.1545321
0.1538339
0.1534775
0.153495
0.1538862
0.1546205
0.1556399
0.156866
0.1582107
0.1595876
0.1609219
0.1621543
0.16324
0.1641433
0.1648299
0.165262
0.1654092
0.1653235
0.1644873
0.1645425
0.1643438
0.1638377
0.1630496
0.1620122
0.1607558
0.1593148
0.1577371
0.1560912
0.1544687
0.1529787
0.1517361
0.1508452
0.1503853
0.1504008
0.1508918
0.1518154
0.1530934
0.1546223
0.1562875
0.1579793
0.1596052
0.161095
0.1623989
0.1634802
0.164306
0.1648412
0.1650575
0.1650078
0.1641937
0.1642129
0.1639438
0.1633318
0.1623994
0.161176
0.1596891
0.1579731
0.1560797
0.1540873
0.1521047
0.150266
0.1487145
0.147587
0.1469953
0.1470086
0.1476271
0.1487833
0.1503673
0.1522429
0.1542665
0.1563039
0.1582451
0.1600099
0.1615444
0.162812
0.1637824
0.1644236
0.1647106
0.1646972
0.1639179
0.1639024
0.1635656
0.1628509
0.1617774
0.1603706
0.1586546
0.1566621
0.154447
0.1520949
0.1497294
0.1475025
0.1455765
0.1441379
0.1433621
0.1433728
0.1441708
0.1456343
0.1475896
0.1498516
0.1522573
0.1546537
0.1569164
0.158958
0.1607221
0.1621736
0.1632855
0.1640298
0.1643849
0.1644062
0.1636742
0.1636277
0.1632299
0.1624222
0.1612203
0.1596453
0.1577175
0.1554671
0.1529478
0.1502478
0.1474949
0.1448274
0.1423981
0.1405225
0.1395385
0.1395458
0.1405465
0.1424451
0.1449008
0.1476017
0.1503947
0.1531388
0.155706
0.1580058
0.1599823
0.1616025
0.1628435
0.1636812
0.1640975
0.1641498
0.1634767
0.1634049
0.162957
0.1620726
0.1607642
0.1590492
0.156944
0.154476
0.1516965
0.1486891
0.1455629
0.1423928
0.1394877
0.1373553
0.1362304
0.1362344
0.1373704
0.1395217
0.1424546
0.1456567
0.1488227
0.1518747
0.1547024
0.1572205
0.1593749
0.1611359
0.1624838
0.1633987
0.1638653
0.1639429
0.1633381
0.1632483
0.1627647
0.1618256
0.1604411
0.1586255
0.1563926
0.1537669
0.1507964
0.1475546
0.1441191
0.1405132
0.1373532
0.1350339
0.1338096
0.1338111
0.1350421
0.1373769
0.1405634
0.1442032
0.1476787
0.1509658
0.1539849
0.1566612
0.158944
0.160806
0.1622306
0.1632006
0.1637029
0.1637984
0.1632675
0.1631683
0.1626662
0.1616986
0.1602744
0.1584064
0.1561067
0.1533982
0.1503261
0.1469547
0.1433373
0.139526
0.1362274
0.1338101
0.1325338
0.1325339
0.1338146
0.1362456
0.1395707
0.143416
0.1470739
0.1504914
0.1536125
0.156372
0.1587221
0.160637
0.1621018
0.1631005
0.1636215
0.1637263
0.1632695
0.1631704
0.1626684
0.161701
0.1602769
0.1584089
0.1561094
0.153401
0.150329
0.1469575
0.1433402
0.1395288
0.1362302
0.1338128
0.1325364
0.1325366
0.1338173
0.1362484
0.1395737
0.1434194
0.1470776
0.1504952
0.1536166
0.1563763
0.1587266
0.1606418
0.1621066
0.1631054
0.1636265
0.1637312
0.1633442
0.1632545
0.1627712
0.1618325
0.1604483
0.1586332
0.1564007
0.1537753
0.1508051
0.1475633
0.1441277
0.1405217
0.1373615
0.135042
0.1338176
0.1338191
0.1350504
0.1373856
0.1405728
0.1442133
0.1476895
0.1509774
0.1539972
0.1566742
0.1589576
0.1608201
0.1622451
0.1632153
0.1637178
0.1638132
0.1634864
0.1634149
0.1629675
0.1620837
0.1607761
0.1590618
0.1569573
0.1544899
0.1517109
0.1487037
0.1455776
0.1424072
0.1395018
0.1373692
0.1362442
0.1362482
0.1373846
0.1395366
0.1424705
0.1456737
0.1488409
0.151894
0.1547227
0.1572418
0.1593972
0.161159
0.1625075
0.1634228
0.1638895
0.163967
0.1636869
0.1636408
0.1632438
0.1624371
0.1612364
0.1596625
0.1577358
0.1554865
0.1529679
0.1502685
0.1475157
0.1448482
0.1424186
0.1405427
0.1395586
0.139566
0.1405672
0.1424666
0.1449236
0.1476258
0.15042
0.1531656
0.1557341
0.1580352
0.1600129
0.1616342
0.1628759
0.1637142
0.1641307
0.1641829
0.1639327
0.1639179
0.1635822
0.162869
0.1617972
0.1603919
0.1586775
0.1566865
0.1544726
0.1521214
0.1497565
0.1475299
0.1456038
0.144165
0.1433891
0.1434
0.1441986
0.1456629
0.1476194
0.1498827
0.1522898
0.1546876
0.1569519
0.1589949
0.1607605
0.1622132
0.163326
0.1640711
0.1644264
0.1644477
0.1642098
0.1642298
0.1639623
0.1633523
0.1624221
0.1612009
0.1597162
0.1580023
0.1561106
0.1541196
0.152138
0.1502999
0.1487486
0.1476212
0.1470296
0.1470431
0.1476621
0.1488191
0.150404
0.1522808
0.1543058
0.1563446
0.1582874
0.1600538
0.1615898
0.1628587
0.1638302
0.1644722
0.1647595
0.1647462
0.1645033
0.1645598
0.1643631
0.1638595
0.1630742
0.1620398
0.1607864
0.1593481
0.1577728
0.1561289
0.1545078
0.1530189
0.1517769
0.1508863
0.1504267
0.1504425
0.1509339
0.151858
0.1531368
0.1546667
0.1563332
0.1580264
0.1596539
0.1611453
0.1624506
0.1635332
0.1643601
0.164896
0.1651128
0.1650631
0.1647994
0.1648919
0.1647647
0.1643648
0.1637195
0.1628639
0.1618296
0.1606499
0.1593677
0.1580405
0.1567424
0.1555592
0.1545792
0.1538816
0.1535256
0.1535433
0.1539348
0.1546695
0.1556896
0.1569165
0.1582623
0.1596406
0.1609763
0.1622101
0.1632971
0.1642017
0.1648893
0.1653221
0.1654696
0.1653841
0.1650856
0.1652118
0.1651491
0.1648448
0.1643278
0.1636349
0.1627983
0.1618496
0.1608262
0.1597753
0.1587552
0.1578315
0.157071
0.1565328
0.1562614
0.1562806
0.1565909
0.1571694
0.157973
0.1589431
0.1600132
0.1611171
0.1621955
0.1631997
0.1640902
0.1648331
0.1653934
0.1657313
0.1658148
0.1656957
0.1653504
0.1655057
0.165499
0.1652777
0.1648722
0.1643204
0.1636545
0.1629037
0.1620999
0.1612808
0.1604913
0.159781
0.1591994
0.1587907
0.1585877
0.1586083
0.158853
0.1593049
0.1599321
0.1606913
0.1615329
0.1624069
0.1632675
0.1640753
0.1647965
0.1653996
0.1658495
0.1661053
0.1661335
0.1659856
0.1655813
0.1657583
0.1657946
0.1656398
0.1653256
0.1648905
0.1643659
0.1637781
0.1631534
0.1625217
0.161917
0.1613763
0.1609363
0.1606295
0.1604802
0.160502
0.1606951
0.1610474
0.1615354
0.162127
0.1627857
0.1634741
0.1641571
0.1648036
0.1653852
0.1658729
0.1662328
0.1664232
0.1664091
0.1662399
0.1657622
0.1659485
0.1660099
0.1659012
0.165656
0.1653123
0.1648993
0.16444
0.1639557
0.1634694
0.1630069
0.1625958
0.1622635
0.162034
0.1619255
0.1619481
0.1621022
0.1623789
0.1627609
0.1632245
0.1637425
0.1642869
0.1648311
0.1653505
0.1658218
0.1662197
0.1665119
0.1666573
0.1666189
0.1664408
0.1658699
0.1660462
0.1661089
0.1660232
0.1658241
0.1655469
0.165217
0.1648534
0.164473
0.1640935
0.1637346
0.1634173
0.1631625
0.1629885
0.1629093
0.1629324
0.1630584
0.1632808
0.1635863
0.163957
0.1643725
0.1648111
0.1652524
0.1656772
0.1660665
0.166399
0.1666462
0.1667696
0.1667311
0.1665638
0.1658785
0.1660185
0.1660559
0.1659713
0.1657973
0.1655631
0.1652891
0.16499
0.1646791
0.1643705
0.1640799
0.163824
0.1636198
0.1634818
0.1634214
0.1634447
0.1635524
0.1637391
0.1639945
0.1643042
0.1646517
0.1650198
0.165392
0.1657527
0.1660867
0.1663767
0.1665996
0.1667229