/*--------------------------------*- C++ -*----------------------------------*\
| =========                 |                                                 |
| \\      /  F ield         | OpenFOAM: The Open Source CFD Toolbox           |
|  \\    /   O peration     | Version:  2506                                  |
|   \\  /    A nd           | Website:  www.openfoam.com                      |
|    \\/     M anipulation  |                                                 |
\*---------------------------------------------------------------------------*/
FoamFile
{
    version     2.0;
    format      ascii;
    arch        "LSB;label=32;scalar=64";
    class       surfaceScalarField;
    location    "3500/air";
    object      phi;
}
// * * * * * * * * * * * * * * * * * * * * * * * * * * * * * * * * * * * * * //

dimensions      [1 0 -1 0 0 0 0];

oriented        oriented;

internalField   nonuniform List<scalar> 
98844
(
-0.007257961
-0.00736649
-0.005924564
-0.005475368
-0.008876389
-0.00541417
-0.004324849
-0.0100587
-0.004987912
-0.003515633
-0.01089466
-0.004707278
-0.002898223
-0.01146975
-0.004516336
-0.002399082
-0.01186012
-0.004382008
-0.001979077
-0.01212004
-0.004285749
-0.00161605
-0.01228705
-0.004215642
-0.001296741
-0.01238793
-0.004163984
-0.001012584
-0.01244306
-0.004125789
-0.0007573041
-0.01246819
-0.004097816
-0.0005255258
-0.01247579
-0.004077985
-0.0003119889
-0.01247584
-0.004065131
-0.000111473
-0.01247577
-0.004058553
8.227016e-05
-0.01248083
-0.004057894
0.0002771343
-0.01249418
-0.004063107
0.0004800426
-0.0125152
-0.0040742
0.0006967242
-0.01254068
-0.004091371
0.0009330426
-0.01256556
-0.004115085
0.001194648
-0.01258215
-0.004146002
0.001487291
-0.01258014
-0.00418527
0.001817601
-0.01254676
-0.004234923
0.002194514
-0.01246582
-0.004298165
0.002631652
-0.01231648
-0.004379909
0.003151627
-0.01207121
-0.004487856
0.003794239
-0.01169156
-0.004633971
0.004634373
-0.01112174
-0.00483712
0.005824727
-0.01028327
-0.005131181
0.007664012
-0.009087194
-0.005574158
-0.007549478
-0.006102353
-0.008768246
-0.005584454
-0.005412713
-0.006435006
-0.006541505
-0.004668121
-0.004925608
-0.007420529
-0.004147567
-0.003881398
-0.008105469
-0.0038334
-0.003111037
-0.008607766
-0.003632338
-0.002511187
-0.008961862
-0.0034981
-0.002024368
-0.009201264
-0.003405594
-0.00161778
-0.00935367
-0.003339965
-0.001271912
-0.009441522
-0.003292276
-0.0009743484
-0.009483481
-0.003257143
-0.0007161945
-0.009495139
-0.003231206
-0.0004899718
-0.00948954
-0.003212465
-0.0002883586
-0.009477615
-0.003199833
-0.0001035959
-0.009467801
-0.003192729
7.277073e-05
-0.009466011
-0.003191178
0.0002497743
-0.009475564
-0.003195613
0.0004364002
-0.00949611
-0.003205716
0.0006411953
-0.009524247
-0.003221221
0.0008722375
-0.009554102
-0.003242493
0.001137232
-0.009577036
-0.003270105
0.001444095
-0.009581881
-0.003305115
0.001802168
-0.009555298
-0.003349533
0.002224356
-0.009481342
-0.003406667
0.002730706
-0.009340908
-0.003481921
0.003354735
-0.009110998
-0.003584237
0.004155045
-0.008763166
-0.003728704
0.005237076
-0.008262895
-0.00394087
0.006796535
-0.007574395
-0.004268331
0.00920165
-0.006684817
-0.004807489
-0.005710369
-0.005575893
-0.00994837
-0.004432686
-0.004984746
-0.00731452
-0.005029404
-0.004145949
-0.005541008
-0.005642452
-0.003551586
-0.004290853
-0.006159283
-0.003196338
-0.003367299
-0.006557572
-0.002973745
-0.002655677
-0.00684473
-0.002828751
-0.002088558
-0.00703736
-0.002731019
-0.001626048
-0.007153545
-0.002662632
-0.001243856
-0.007210607
-0.002613105
-0.0009262614
-0.007224821
-0.002576252
-0.0006618389
-0.007211099
-0.002548459
-0.0004407932
-0.007182873
-0.002527709
-0.000253356
-0.007151963
-0.002513086
-8.904933e-05
-0.007127892
-0.002504213
6.361295e-05
-0.007117354
-0.002501316
0.000216976
-0.00712402
-0.002504904
0.0003832612
-0.007147709
-0.002514683
0.0005740609
-0.007184751
-0.002530293
0.0008002594
-0.007228388
-0.002551909
0.001072082
-0.007268967
-0.002579889
0.001399836
-0.007294469
-0.002615163
0.001795491
-0.007291218
-0.002659732
0.002275359
-0.007243984
-0.002717224
0.002864407
-0.007136126
-0.002793827
0.00360343
-0.006949871
-0.002900147
0.004561241
-0.006666615
-0.003054359
0.005854957
-0.006269118
-0.00328749
0.007685989
-0.005749324
-0.003656101
0.0104007
-0.00512919
-0.004270331
-0.004522176
-0.005135014
-0.01078025
-0.003621065
-0.004701731
-0.007998122
-0.003981736
-0.003829789
-0.006058464
-0.004387497
-0.003194609
-0.004655716
-0.004750295
-0.002811733
-0.003604138
-0.005038084
-0.002571063
-0.002790157
-0.00524442
-0.002414289
-0.002144176
-0.005374854
-0.002308483
-0.001623732
-0.005440047
-0.002233939
-0.001202382
-0.005452918
-0.002179036
-0.000862629
-0.005427516
-0.002137054
-0.000591352
-0.005378156
-0.002104217
-0.0003767934
-0.005318754
-0.002078674
-0.0002066833
-0.00526225
-0.00205982
-6.74314e-05
-0.005219452
-0.002047689
5.61661e-05
-0.005198123
-0.002042825
0.0001805252
-0.005202517
-0.002045859
0.0003218776
-0.005232537
-0.00205652
0.0004955146
-0.005284041
-0.002074343
0.0007155143
-0.005349235
-0.00209915
0.0009946805
-0.00541721
-0.00213092
0.001345364
-0.005474889
-0.00217026
0.001781312
-0.005508128
-0.002219036
0.002320685
-0.005502333
-0.002281021
0.00299069
-0.005443132
-0.002362996
0.003834772
-0.005317255
-0.002476696
0.004924021
-0.005113663
-0.002642197
0.006374491
-0.004826446
-0.002893139
0.008376469
-0.004461776
-0.003289523
0.0112443
-0.004051801
-0.003945214
-0.003685485
-0.004843741
-0.01134984
-0.003000736
-0.004507778
-0.008497665
-0.00320762
-0.003626287
-0.006455994
-0.003459176
-0.002969989
-0.00494423
-0.00369287
-0.002569187
-0.003790786
-0.003877681
-0.002313844
-0.002888482
-0.004001637
-0.002145083
-0.002170146
-0.004064083
-0.002029105
-0.001594168
-0.004070785
-0.001945236
-0.001134365
-0.004031473
-0.001881245
-0.0007731411
-0.003958605
-0.001830131
-0.0004967685
-0.00386628
-0.001788245
-0.0002921191
-0.003769239
-0.001754161
-0.0001445129
-0.003681928
-0.001727925
-3.687189e-05
-0.003616819
-0.00171027
5.036288e-05
-0.003583011
-0.001702343
0.0001383646
-0.003585537
-0.001704978
0.0002481195
-0.003624357
-0.001717931
0.0003993201
-0.003694708
-0.00174053
0.000609581
-0.003787486
-0.001772006
0.0008941932
-0.003890178
-0.00181164
0.001266961
-0.003988244
-0.00185941
0.001742302
-0.004066729
-0.001916736
0.002338529
-0.004111266
-0.001987292
0.003082621
-0.004109102
-0.002078118
0.004017196
-0.004050205
-0.002201621
0.0052109
-0.003928536
-0.002378829
0.00677333
-0.003744526
-0.002644347
0.00888036
-0.003510082
-0.003058721
0.01182089
-0.003256463
-0.003735863
-0.003046896
-0.00464406
-0.01173358
-0.002498587
-0.004369926
-0.008847905
-0.002604077
-0.003489217
-0.006741328
-0.002743073
-0.002822677
-0.005150263
-0.002873588
-0.002410344
-0.003915584
-0.002969244
-0.002143112
-0.002937769
-0.003016838
-0.001962611
-0.002154258
-0.003012719
-0.001834871
-0.001526456
-0.002959744
-0.001738839
-0.001030325
-0.002865616
-0.001661985
-0.0006496922
-0.002741878
-0.001597357
-0.0003713593
-0.002602876
-0.001541733
-0.0001815588
-0.002464493
-0.001494543
-6.332579e-05
-0.002343252
-0.001456905
4.273864e-06
-0.00225363
-0.001430785
4.591419e-05
-0.00220634
-0.001418307
8.821545e-05
-0.002207211
-0.001420624
0.0001578471
-0.002256456
-0.001437529
0.0002796282
-0.002348489
-0.001467997
0.0004750727
-0.002472633
-0.001510295
0.0007618219
-0.00261437
-0.001562554
0.001154421
-0.002757202
-0.001623638
0.00166682
-0.002884999
-0.001694126
0.002315935
-0.002983146
-0.001777231
0.003126604
-0.0030398
-0.001879969
0.004138402
-0.003046982
-0.002015019
0.005415314
-0.003001599
-0.002203845
0.007059138
-0.002907161
-0.002481186
0.00923307
-0.002776866
-0.002907145
0.0122086
-0.002637352
-0.003594637
-0.002531058
-0.004501985
-0.01198591
-0.002075748
-0.004269743
-0.009082555
-0.002113851
-0.003393578
-0.006931301
-0.002171921
-0.002722402
-0.005279621
-0.00222295
-0.002302316
-0.003978146
-0.002245633
-0.002025082
-0.002934651
-0.002227439
-0.001832891
-0.002091964
-0.002163512
-0.001691891
-0.001415767
-0.002055115
-0.001580823
-0.0008855486
-0.001908738
-0.001487093
-0.0004878843
-0.00173553
-0.001404008
-0.0002111628
-0.001550449
-0.001329145
-4.204505e-05
-0.001370371
-0.001263236
3.912954e-05
-0.001215099
-0.001209323
5.727852e-05
-0.001100487
-0.001171288
4.262056e-05
-0.001039509
-0.001152169
2.845903e-05
-0.001039042
-0.001154002
4.825115e-05
-0.001099384
-0.00117686
0.0001326268
-0.001213892
-0.001218968
0.0003074299
-0.001370276
-0.001277156
0.0005925475
-0.001551784
-0.0013477
0.001002422
-0.001739338
-0.001427735
0.001549443
-0.001915552
-0.001516465
0.002247796
-0.002065198
-0.001616298
0.003118771
-0.002176821
-0.001733949
0.004197621
-0.002243643
-0.001882186
0.005542854
-0.002264184
-0.002082646
0.007248857
-0.002243168
-0.002369993
0.009468852
-0.002193143
-0.002803714
0.01246303
-0.00213562
-0.003495904
-0.002097873
-0.004398536
-0.01214446
-0.001710205
-0.004195409
-0.009229458
-0.001704255
-0.003324592
-0.007044169
-0.001705897
-0.00265131
-0.005343158
-0.001698512
-0.002225447
-0.003984459
-0.001665212
-0.001939117
-0.002882231
-0.001594767
-0.001734897
-0.001984795
-0.001482022
-0.001578923
-0.001262782
-0.001327363
-0.001449761
-0.0007002271
-0.001136532
-0.001334757
-0.0002877166
-0.0009203945
-0.001227642
-1.659347e-05
-0.0006946085
-0.001126959
0.0001270986
-0.0004779894
-0.001036069
0.0001634938
-0.0002911597
-0.0009603305
0.0001221577
-0.0001537014
-0.0009054449
4.005292e-05
-8.042909e-05
-0.0008769704
-4.16977e-05
-7.886655e-05
-0.0008784209
-8.169112e-05
-0.0001494524
-0.0009099335
-4.250205e-05
-0.0002849525
-0.0009681247
0.0001059447
-0.0004708363
-0.001047882
0.0003858255
-0.0006882899
-0.00114337
0.0008106819
-0.0009152569
-0.001248934
0.001390414
-0.00113368
-0.0013616
0.002135249
-0.001327357
-0.001482673
0.003061902
-0.001485042
-0.001618429
0.00420061
-0.001600694
-0.001781653
0.005604308
-0.001673699
-0.00199418
0.007360868
-0.001709076
-0.002290649
0.009615964
-0.001718041
-0.002730195
0.01262247
-0.00171762
-0.003424505
-0.001724558
-0.004321655
-0.0122361
-0.001388773
-0.00413928
-0.009311156
-0.001355812
-0.00327338
-0.007097378
-0.001320699
-0.002598972
-0.00535394
-0.001273779
-0.002168167
-0.003944419
-0.0012017
-0.00187303
-0.002788404
-0.001094642
-0.001656136
-0.001839463
-0.0009475492
-0.001483411
-0.001073486
-0.0007602946
-0.001333042
-0.0004797638
-0.0005380135
-0.001192237
-5.444167e-05
-0.0002907501
-0.001054963
0.0002092324
-3.665128e-05
-0.000921627
0.0003228478
0.0002066741
-0.0007982745
0.0003081829
0.0004159448
-0.000692435
0.0001984944
0.0005704562
-0.0006144642
3.786608e-05
0.0006533696
-0.0005731655
-0.0001225632
0.0006557835
-0.0005742158
-0.0002312781
0.0005771082
-0.0006178412
-0.0002435163
0.0004258964
-0.0006986061
-0.00012517
0.0002186191
-0.0008077973
0.0001465343
-2.453387e-05
-0.0009354561
0.0005842933
-0.0002792111
-0.001073801
0.001195439
-0.0005282426
-0.001216579
0.001984773
-0.0007531474
-0.00136354
0.002963713
-0.0009433653
-0.001520612
0.004157168
-0.001093439
-0.001700708
0.005612739
-0.00120326
-0.001926007
0.007412771
-0.001277725
-0.00223138
0.009697263
-0.001326597
-0.002675934
0.01271435
-0.001363267
-0.00337144
-0.001397406
-0.004263579
-0.01228121
-0.001102929
-0.004096349
-0.009346367
-0.001056081
-0.003234575
-0.007107282
-0.001000546
-0.002559235
-0.005326115
-0.0009311549
-0.002123789
-0.003870604
-0.0008373547
-0.001819852
-0.002664858
-0.0007106962
-0.001589689
-0.001667284
-0.0005464218
-0.001398698
-0.0008589679
-0.0003441562
-0.001224451
-0.0002344524
-0.0001089384
-0.001053587
0.0002039135
0.0001517341
-0.0008808458
0.0004573853
0.0004177758
-0.0007078942
0.0005365682
0.0006717426
-0.0005442467
0.0004647644
0.0008898921
-0.0004021385
0.000280662
0.001051203
-0.0002966393
3.604109e-05
0.001138335
-0.0002403396
-0.0002085164
0.001141252
-0.0002409057
-0.0003920246
0.001059274
-0.0002986521
-0.0004619233
0.0009021208
-0.0004063208
-0.0003784438
0.0006866104
-0.0005514661
-0.0001175322
0.0004335914
-0.0007190323
0.0003334874
0.0001667472
-0.0008969736
0.0009754705
-9.482633e-05
-0.001075395
0.001807586
-0.0003326791
-0.00125258
0.002835845
-0.0005378702
-0.001433751
0.004079875
-0.0007051544
-0.001632311
0.005582368
-0.000834688
-0.001871061
0.007421073
-0.0009310459
-0.002185381
0.009731756
-0.001002556
-0.002634722
0.01275945
-0.001059665
-0.003331296
-0.001107421
-0.004219397
-0.01229547
-0.0008463869
-0.004063173
-0.0093507
-0.0007960486
-0.003204801
-0.00708884
-0.0007339101
-0.002528492
-0.005274052
-0.0006573892
-0.002088551
-0.00377718
-0.000558276
-0.001775947
-0.002526022
-0.0004295064
-0.001532345
-0.001483283
-0.0002667797
-0.001322377
-0.0006352142
-6.961433e-05
-0.001122606
1.696881e-05
0.000157978
-0.0009190953
0.0004676454
0.0004078572
-0.0007067952
0.0007114732
0.0006645383
-0.0004905854
0.0007562368
0.000908574
-0.0002815897
0.0006269816
0.001119307
-0.0001001541
0.0003669747
0.001273871
3.734518e-05
3.450919e-05
0.001356049
0.0001147575
-0.0002980963
0.00135911
0.0001147533
-0.0005579796
0.001282337
3.68255e-05
-0.000685934
0.001132133
-0.0001020523
-0.0006374709
0.0009243258
-0.0002861734
-0.0003863602
0.00068151
-0.0004990245
7.570216e-05
0.0004249724
-0.0007202831
0.0007463474
0.0001729759
-0.0009384433
0.00161877
-5.667165e-05
-0.001148426
0.002692793
-0.0002564603
-0.00135543
0.003982983
-0.0004220909
-0.00157325
0.005527674
-0.0005536981
-0.001825678
0.007400901
-0.0006553753
-0.002148894
0.009735326
-0.0007340082
-0.002602969
0.01277398
-0.0007974935
-0.003300827
-0.0008478617
-0.004186018
-0.01229136
-0.0006127068
-0.004036754
-0.009337255
-0.0005681522
-0.003181993
-0.007055513
-0.0005109157
-0.002504733
-0.005211688
-0.0004406079
-0.002060604
-0.003678907
-0.0003511723
-0.001739881
-0.002387823
-0.0002370697
-0.001483517
-0.001304623
-9.479549e-05
-0.001255181
-0.0004201869
7.648514e-05
-0.001030532
0.0002581089
0.0002744902
-0.0007948036
0.000718775
0.0004898148
-0.000542619
0.0009526515
0.0007117169
-0.0002810498
0.0009660336
0.0009240885
-2.8891e-05
0.0007798955
0.001103896
0.0002015548
0.0004470977
0.00123738
0.0003692946
3.336809e-05
0.001309494
0.0004602912
-0.0003806818
0.001312315
0.0004608507
-0.0007138958
0.001245159
0.0003703981
-0.0008995109
0.001115676
0.0002020778
-0.0008831392
0.0009385999
-3.064032e-05
-0.0006422856
0.000727459
-0.0002867974
-0.0001694237
0.0005054835
-0.0005533683
0.0005270663
0.0002882689
-0.0008117787
0.00143574
8.889817e-05
-0.00105424
0.002550676
-8.492842e-05
-0.001286464
0.003881407
-0.0002298093
-0.00152301
0.005462737
-0.0003465179
-0.001788507
0.007365849
-0.0004383397
-0.002120145
0.009721292
-0.0005106204
-0.002578827
0.01277093
-0.0005688625
-0.003278262
-0.0006127875
-0.004161804
-0.01227965
-0.0003983459
-0.004019433
-0.009317133
-0.0003651284
-0.003165537
-0.007019155
-0.0003217679
-0.002487122
-0.005151935
-0.0002684807
-0.002039344
-0.003590166
-0.0002012637
-0.001711675
-0.002266671
-0.0001162569
-0.001444304
-0.001150454
-1.108978e-05
-0.001199919
-0.0002356914
0.0001154813
-0.0009537546
0.0004645042
0.00026265
-0.0006883509
0.0009337477
0.0004207659
-0.0004001898
0.001160223
0.0005848448
-9.959752e-05
0.001143036
0.0007399306
0.0002013503
0.0009113498
0.0008736405
0.0004619481
0.0005165197
0.0009724876
0.0006597287
3.241716e-05
0.001026002
0.0007676007
-0.0004521444
0.001028207
0.0007686759
-0.0008477697
0.0009785511
0.0006622391
-0.00107943
0.00088281
0.0004645324
-0.001094246
0.000751157
0.0002022645
-0.000861195
0.0005972096
-0.000102796
-0.0003799769
0.0004328874
-0.000408617
0.0003383775
0.0002732725
-0.0007033535
0.00127765
0.0001254199
-0.0009757904
0.002426115
-3.546959e-06
-0.001229842
0.003789717
-0.0001105249
-0.001482884
0.005400616
-0.0001976685
-0.001759745
0.00732783
-0.0002667844
-0.002098765
0.009700725
-0.0003214973
-0.002562015
0.01276083
-0.0003653833
-0.00326358
-0.0003974567
-0.004147079
-0.01226709
-0.0001962417
-0.004006618
-0.009298668
-0.000179222
-0.003154329
-0.00698924
-0.000155985
-0.002475208
-0.00510554
-0.000127389
-0.002024789
-0.003523303
-9.145918e-05
-0.001692038
-0.002176782
-4.619763e-05
-0.001416577
-0.001037109
9.666293e-06
-0.001160426
-0.0001004468
7.675294e-05
-0.0008979292
0.0006160663
0.0001559644
-0.0006098229
0.001091661
0.0002396383
-0.0002944624
0.001311455
0.0003276045
3.745256e-05
0.001273511
0.0004094148
0.0003684653
0.001007765
0.0004805135
0.0006588791
0.0005676143
0.000533296
0.0008793492
3.168935e-05
0.00056194
0.0009999934
-0.0005047813
0.0005632069
0.001001477
-0.0009459698
0.0005367798
0.0008829661
-0.001212028
0.0004857919
0.0006630831
-0.001248009
0.0004158891
0.0003712548
-0.001022063
0.0003348079
3.646051e-05
-0.0005345526
0.0002466105
-0.0003012281
0.0002001069
0.0001619406
-0.000623323
0.001161486
8.289782e-05
-0.0009188529
0.002333346
1.435934e-05
-0.001189762
0.003720523
-4.27853e-05
-0.001454914
0.005352369
-8.927437e-05
-0.001740237
0.007296748
-0.0001263025
-0.002084858
0.009682189
-0.0001556853
-0.002551249
0.01275015
-0.0001791351
-0.003254208
-0.0001954846
-0.004138071
-0.01225904
-1.915487e-06
-0.004000533
-0.009287688
-2.147407e-06
-0.003148422
-0.006972436
-2.339735e-06
-0.002468894
-0.005080234
-2.473497e-06
-0.002017115
-0.003487415
-2.539358e-06
-0.001681735
-0.002129018
-2.536167e-06
-0.001402055
-0.0009771406
-2.477132e-06
-0.00113973
-2.991207e-05
-2.357797e-06
-0.0008681135
0.000696089
-2.174808e-06
-0.0005678572
0.001175629
-1.97981e-06
-0.000237917
0.001390438
-1.76661e-06
0.0001145676
0.001342684
-1.561287e-06
0.0004587368
0.001058933
-1.36904e-06
0.0007656393
0.000594757
-1.188645e-06
0.0009986676
3.131932e-05
-1.022203e-06
0.001126406
-0.0005327012
-8.845657e-07
0.001128119
-0.0009980309
-7.882821e-07
0.001002904
-0.001282269
-7.260191e-07
0.0007707622
-0.001328202
-7.100405e-07
0.0004625387
-0.00110753
-7.471778e-07
0.0001148879
-0.000616366
-8.417516e-07
-0.0002437064
0.0001269707
-9.92587e-07
-0.000580399
0.001099636
-1.206356e-06
-0.0008885566
0.002284166
-1.461787e-06
-0.001168705
0.003683382
-1.718809e-06
-0.001440279
0.005326075
-1.941404e-06
-0.001730022
0.007279363
-2.082402e-06
-0.002077505
0.009671268
-2.070981e-06
-0.002545516
0.01274323
-1.821057e-06
-0.003249271
-1.278817e-06
-0.004133813
-0.01225915
0.0001923532
-0.004000552
-0.009287729
0.0001749036
-0.003148464
-0.006972405
0.0001512805
-0.002468942
-0.00508013
0.0001224183
-0.002017163
-0.003487245
8.636074e-05
-0.001681782
-0.002128794
4.111347e-05
-0.001402097
-0.000976876
-1.4608e-05
-0.001139783
-2.962728e-05
-8.14533e-05
-0.000868149
0.0006964129
-0.0001603277
-0.0005678826
0.001175956
-0.0002435911
-0.000237927
0.001390744
-0.0003311231
0.000114574
0.001342961
-0.00041252
0.0004587481
0.001059179
-0.0004832329
0.0007656517
0.0005949676
-0.0005356528
0.0009986825
3.148975e-05
-0.0005639618
0.001126424
-0.0005325768
-0.0005649501
0.001128139
-0.0009979589
-0.000538325
0.001002925
-0.001282254
-0.0004872085
0.000770784
-0.001328249
-0.0004172686
0.0004625593
-0.001107639
-0.0003362547
0.0001149031
-0.0006165355
-0.0002482333
-0.0002437072
0.0001267488
-0.0001638502
-0.0005804221
0.001099377
-8.521295e-05
-0.0008886174
0.002283903
-1.716472e-05
-0.001168819
0.003683156
3.947005e-05
-0.001440439
0.005325929
8.551901e-05
-0.00173023
0.007279362
0.0001222577
-0.00207777
0.009671492
0.0001516557
-0.002545854
0.01274379
0.0001756052
-0.003249723
0.000193076
-0.004134495
-0.01226738
0.0003944009
-0.00400658
-0.00929879
0.0003607664
-0.003154451
-0.006989146
0.0003170005
-0.002475362
-0.00510523
0.0002634531
-0.002024948
-0.003522793
0.0001961195
-0.001692192
-0.002176078
0.0001111224
-0.00141672
-0.001036321
6.213137e-06
-0.001160575
-9.952463e-05
-0.0001202024
-0.0008980428
0.0006170533
-0.0002670141
-0.0006098868
0.001092645
-0.0004247017
-0.0002944757
0.001312371
-0.0005883335
3.748988e-05
0.001274335
-0.000742998
0.000368519
0.001008495
-0.0008763143
0.0006589274
0.0005682379
-0.0009747896
0.0008794009
3.219248e-05
-0.001027961
0.001000052
-0.0005044146
-0.001029879
0.001001543
-0.0009457573
-0.0009800137
0.0008830376
-0.001211984
-0.0008841338
0.0006631578
-0.001248143
-0.0007524297
0.000371326
-0.001022376
-0.0005985284
3.651174e-05
-0.0005350417
-0.0004343381
-0.0003012242
0.0001994586
-0.0002749557
-0.0006233903
0.001160728
-0.0001274305
-0.0009190479
0.00233256
1.147398e-06
-0.00119014
0.003719855
0.0001076688
-0.001455491
0.005351929
0.000194432
-0.001740984
0.007296744
0.0002632619
-0.002085816
0.009682875
0.0003179629
-0.002552435
0.01275191
0.0003622926
-0.003255718
0.0003953849
-0.004140307
-0.01228016
0.0006090443
-0.004019222
-0.009317348
0.0005637033
-0.003165749
-0.007018991
0.0005060565
-0.002487411
-0.005151413
0.0004355138
-0.002039636
-0.003589325
0.0003459891
-0.001711954
-0.002265572
0.0002319329
-0.001444561
-0.001149077
8.984702e-05
-0.001200125
-0.0002341451
-8.118499e-05
-0.0009539455
0.0004661478
-0.0002788501
-0.0006884524
0.0009353777
-0.000493748
-0.0004001788
0.001161734
-0.0007151823
-9.950212e-05
0.001144394
-0.0009271347
0.0002014822
0.000912556
-0.001106522
0.0004620512
0.0005175532
-0.00123961
0.0006598296
3.325335e-05
-0.001311368
0.0007677123
-0.0004515322
-0.001313891
0.0007688034
-0.0008474086
-0.00124651
0.0006623789
-0.001079339
-0.001116876
0.0004646784
-0.001094439
-0.0009397298
0.0002024063
-0.000861659
-0.0007285856
-0.0001027176
-0.0003807162
-0.0005066806
-0.0004085957
0.0003373827
-0.0002895961
-0.0007034543
0.001276463
-9.038466e-05
-0.0009761224
0.002424901
8.325568e-05
-0.001230543
0.003788666
0.0002279305
-0.001484023
0.005399888
0.0003444479
-0.001761235
0.007327806
0.0004361212
-0.002100774
0.009701852
0.0005083314
-0.002564411
0.0127637
0.0005666081
-0.003266161
0.0006108775
-0.004151017
-0.01229245
0.0008423912
-0.004037776
-0.009337588
0.0007915143
-0.003182667
-0.007055255
0.000728981
-0.002505254
-0.005210927
0.0006522483
-0.00206106
-0.00367771
0.0005530772
-0.001740301
-0.002386249
0.0004243804
-0.001483905
-0.001302718
0.000261838
-0.001255519
-0.0004180533
6.49602e-05
-0.001030806
0.0002603604
-0.0001622935
-0.0007949661
0.0007210423
-0.0004118303
-0.000542595
0.0009547233
-0.0006680619
-0.0002807964
0.0009679203
-0.0009116184
-2.870798e-05
0.0007815772
-0.001121904
0.0002017314
0.00044854
-0.001276035
0.0003694674
3.453579e-05
-0.001357837
0.0004604794
-0.0003798236
-0.001360589
0.0004610636
-0.0007133779
-0.001283581
0.0003706307
-0.0008993493
-0.001133219
0.00020232
-0.0008833344
-0.0009253005
-3.043896e-05
-0.0006428217
-0.0006824337
-0.0002866596
-0.0001702873
-0.0004258904
-0.0005533201
0.0005259054
-0.0001739125
-0.0008118724
0.001434365
5.573495e-05
-0.001054576
0.002549265
0.0002555475
-0.001287188
0.003880185
0.0004212078
-0.001524194
0.00546189
0.0005528187
-0.001790072
0.007365787
0.0006544965
-0.00212227
0.009722479
0.0007330447
-0.002581403
0.01277417
0.0007963017
-0.003281378
0.0008461003
-0.004166172
-0.01229688
0.001098812
-0.004064462
-0.009351089
0.001051465
-0.003205737
-0.007088454
0.0009955765
-0.002529228
-0.005273027
0.0009260119
-0.002089188
-0.003775614
0.0008321938
-0.001776526
-0.002523996
0.0007056432
-0.001532877
-0.001480877
0.0005415745
-0.001322852
-0.0006325013
0.0003395831
-0.001122995
1.989491e-05
0.0001046901
-0.0009193759
0.0004704898
-0.0001555273
-0.0007068935
0.0007141178
-0.0004211752
-0.0004905101
0.0007586507
-0.0006746746
-0.0002814718
0.0006291516
-0.0008923591
-0.0001000407
0.0003688284
-0.001053259
3.755277e-05
3.600619e-05
-0.001140032
0.0001150231
-0.0002969926
-0.001142641
0.0001150562
-0.0005572991
-0.001060405
3.713652e-05
-0.0006856609
-0.0009030596
-0.0001017926
-0.0006376124
-0.0006874221
-0.0002859222
-0.0003868851
-0.0004343107
-0.0004988459
7.484462e-05
-0.000167415
-0.000720201
0.0007452023
9.422316e-05
-0.0009384895
0.001617436
0.0003321513
-0.001148647
0.002691437
0.0005374417
-0.001355891
0.003981813
0.0007048188
-0.001573984
0.0055269
0.000834402
-0.001826667
0.007400844
0.0009307605
-0.002150205
0.009736366
0.001002161
-0.002604635
0.01277667
0.001058979
-0.003302978
0.001106178
-0.004189035
-0.0122828
0.001384642
-0.00409791
-0.009346745
0.001351191
-0.003235777
-0.007106726
0.001315761
-0.002560201
-0.005324798
0.001268712
-0.002124625
-0.003868657
0.001196663
-0.001820607
-0.00266239
0.001089758
-0.001590379
-0.001664402
0.0009429065
-0.001399316
-0.0008557937
0.0007559533
-0.001224975
-0.0002311377
0.0005340177
-0.00105398
0.0002072862
0.0002871345
-0.0008810817
0.0004605476
3.354496e-05
-0.0007079772
0.0005394939
-0.0002094082
-0.0005442082
0.0004673776
-0.000418242
-0.0004019962
0.0002828988
-0.0005723568
-0.0002964184
3.785227e-05
-0.0006549185
-0.0002400622
-0.0002071673
-0.0006570345
-0.0002405823
-0.0003911547
-0.0005781079
-0.0002983052
-0.0004615242
-0.0004266984
-0.000405987
-0.0003784847
-0.0002192706
-0.0005511866
-0.0001179886
2.403343e-05
-0.0007188362
0.0003326965
0.000278774
-0.0008968701
0.000974417
0.0005279059
-0.001075399
0.00180637
0.0007529102
-0.001252708
0.002834614
0.0009432273
-0.001434027
0.004078811
0.001093378
-0.001632754
0.005581675
0.001203229
-0.001871687
0.007421008
0.001277666
-0.002186236
0.009732611
0.001326419
-0.002635858
0.01276158
0.001362835
-0.003332818
0.001396563
-0.004221499
-0.01223782
0.001706141
-0.004141182
-0.009311476
0.001699726
-0.003274875
-0.007096612
0.001701091
-0.002600191
-0.005352303
0.001693627
-0.002169222
-0.003942074
0.001660412
-0.001873975
-0.002785492
0.00159017
-0.001656991
-0.001836116
0.00147771
-0.001484176
-0.001069844
0.001323385
-0.0013337
-0.0004759801
0.001132919
-0.001192761
-5.069066e-05
0.0009171669
-0.001055318
0.0002129228
0.0006917456
-0.0009218102
0.000326241
0.0004756068
-0.0007983291
0.0003112112
0.0002891403
-0.000692348
0.0002010871
0.0001520396
-0.0006142678
3.996608e-05
7.909802e-05
-0.0005728909
-0.0001209884
7.781128e-05
-0.0005738869
-0.0002302298
0.0001486296
-0.0006174917
-0.0002429758
0.0002843291
-0.0006982773
-0.0001251011
0.0004703772
-0.0008075184
0.0001462087
0.0006879714
-0.000935244
0.0005836169
0.0009150483
-0.001073679
0.001194502
0.001133573
-0.001216549
0.001983679
0.001327341
-0.001363604
0.002962596
0.001485097
-0.001520784
0.004156196
0.001600788
-0.001701007
0.005612103
0.001673785
-0.001926461
0.007412696
0.0017091
-0.002232025
0.009697982
0.001717938
-0.002676803
0.01271611
0.001717309
-0.003372597
0.001723951
-0.004265157
-0.01214628
0.00207185
-0.004197689
-0.009229675
0.00210953
-0.003326404
-0.007043158
0.002167378
-0.002652802
-0.005341174
0.002218385
-0.002226739
-0.003981704
0.002241209
-0.001940264
-0.002878876
0.002223268
-0.001735923
-0.001980997
0.002159667
-0.001579832
-0.001258697
0.002051633
-0.001450545
-0.0006960139
0.001905635
-0.001335396
-0.0002835463
0.001732819
-0.001228116
-1.270313e-05
0.001548144
-0.001127239
0.0001308101
0.001368334
-0.001036237
0.0001668384
0.001213456
-0.0009603397
0.0001250329
0.001099169
-0.0009053199
4.24095e-05
0.001038475
-0.00087675
-3.989541e-05
0.001038256
-0.0008781355
-8.045212e-05
0.001098812
-0.000909622
-4.179551e-05
0.001213504
-0.0009678274
0.0001061622
0.001370047
-0.001047624
0.0003856196
0.001551686
-0.001143169
0.0008101216
0.001739348
-0.001248799
0.001389585
0.001915649
-0.001361535
0.002134254
0.00206536
-0.001482686
0.003060869
0.002177019
-0.001618534
0.004199696
0.002243839
-0.001781875
0.005603701
0.002264331
-0.001994548
0.007360778
0.002243215
-0.00229119
0.009616595
0.002193036
-0.002730912
0.012624
0.002135322
-0.003425416
0.002097439
-0.00432291
-0.01198777
0.002494972
-0.004272411
-0.009082625
0.002600107
-0.003395719
-0.006930014
0.002738951
-0.002724181
-0.005277276
0.002869509
-0.002303859
-0.003974981
0.002965358
-0.002026442
-0.002930867
0.003013248
-0.001834091
-0.002087742
0.003009485
-0.00169294
-0.001411278
0.002956891
-0.001581719
-0.0008809553
0.002863146
-0.001487831
-0.0004833377
0.002739781
-0.001404577
-0.0002067817
0.002601131
-0.001329539
-3.803029e-05
0.002463051
-0.001263465
4.272766e-05
0.002342107
-0.001209405
6.037874e-05
0.002252769
-0.001171248
4.517288e-05
0.002205708
-0.001152023
3.0434e-05
0.002206788
-0.00115379
4.965076e-05
0.002256212
-0.001176614
0.0001334771
0.002348398
-0.001218717
0.0003077794
0.002472672
-0.001276924
0.0005924575
0.002614515
-0.001347503
0.001001964
0.002757428
-0.001427583
0.001548701
0.002885283
-0.001516368
0.002246871
0.002983461
-0.001616268
0.003117786
0.003040114
-0.001734007
0.004196729
0.00304726
-0.001882362
0.005542237
0.003001798
-0.002082971
0.007248719
0.002907235
-0.0023705
0.009469402
0.002776777
-0.002804421
0.01246448
0.002637092
-0.003496847
0.002530704
-0.004399798
-0.01173542
0.002997534
-0.004372976
-0.008847784
0.003204167
-0.003491688
-0.006739744
0.003455664
-0.00282475
-0.005147557
0.003689471
-0.002412147
-0.003912027
0.003874523
-0.002144693
-0.00293359
0.003998803
-0.00196399
-0.00214966
0.004061616
-0.001836057
-0.001521624
0.004068698
-0.00173984
-0.001025428
0.004029755
-0.001662802
-0.0006448822
0.003957232
-0.001597994
-0.0003667737
0.003865219
-0.001542194
-0.0001773295
0.003768448
-0.001494837
-5.955583e-05
0.003681379
-0.001457043
7.5363e-06
0.003616482
-0.001430802
4.860354e-05
0.00358287
-0.001418227
9.031577e-05
0.003585546
-0.001420467
0.0001593647
0.003624494
-0.001437327
0.0002805896
0.003694952
-0.001467776
0.000475524
0.003787817
-0.001510077
0.0007618213
0.003890575
-0.001562355
0.001154038
0.003988684
-0.001623471
0.001666136
0.004067191
-0.001694004
0.002315049
0.004111725
-0.001777174
0.003125637
0.004109531
-0.001880001
0.004137503
0.00405057
-0.002015174
0.005414661
0.003928801
-0.002204158
0.007058937
0.003744654
-0.002481693
0.009233548
0.003510045
-0.002907877
0.01221002
0.003256263
-0.003595644
0.0030466
-0.004503325
-0.01135156
0.003618417
-0.004511186
-0.008497309
0.003978989
-0.003629074
-0.006454106
0.004384818
-0.002972354
-0.004941186
0.004747808
-0.002571254
-0.003786885
0.005035877
-0.002315653
-0.002883974
0.005242544
-0.002146649
-0.00216525
0.005373331
-0.002030436
-0.00158908
0.005438873
-0.001946342
-0.001129258
0.005452074
-0.001882138
-0.0007681677
0.005426968
-0.001830823