/*--------------------------------*- C++ -*----------------------------------*\
| =========                 |                                                 |
| \\      /  F ield         | OpenFOAM: The Open Source CFD Toolbox           |
|  \\    /   O peration     | Version:  2506                                  |
|   \\  /    A nd           | Website:  www.openfoam.com                      |
|    \\/     M anipulation  |                                                 |
\*---------------------------------------------------------------------------*/
FoamFile
{
    version     2.0;
    format      ascii;
    arch        "LSB;label=32;scalar=64";
    class       volScalarField;
    location    "250/airRegion";
    object      alphat;
}
// * * * * * * * * * * * * * * * * * * * * * * * * * * * * * * * * * * * * * //

dimensions      [1 -1 -1 0 0 0 0];

internalField   nonuniform List<scalar> 
85779
(
0.106685
0.1071216
0.1068954
0.1066313
0.1063374
0.1058003
0.1043293
0.09947402
0.08502524
0.07927873
0.07754621
0.07832924
0.081334
0.0862886
0.09214664
0.09685183
0.09763325
0.09161294
0.08226159
0.07517246
0.0736121
0.07873149
0.09318444
0.1027279
0.105154
0.1056469
0.1052075
0.1022604
0.08605627
0.0233773
0.1068068
0.1073894
0.1069608
0.1063506
0.1056246
0.1044023
0.1015623
0.09456183
0.08496901
0.08074282
0.07923112
0.07982214
0.08247622
0.08699182
0.09239435
0.09675545
0.09746171
0.09171287
0.08261651
0.0757675
0.0743416
0.07856417
0.08764216
0.09869817
0.1025798
0.1034043
0.1025213
0.09805865
0.07987139
0.02195911
0.106602
0.1068743
0.1061928
0.105329
0.1043045
0.1025563
0.09837854
0.09038481
0.08514594
0.08217308
0.08095417
0.08142184
0.08368419
0.08759146
0.09227648
0.09602696
0.09649746
0.09101797
0.08213852
0.0752848
0.07346023
0.07653517
0.08371957
0.09585529
0.100191
0.1011326
0.1003013
0.09618145
0.07959415
0.02219858
0.1065497
0.1066019
0.1057194
0.1046664
0.1033927
0.101006
0.09517776
0.08838596
0.08450598
0.08243702
0.08169213
0.08228264
0.08434293
0.08774154
0.09170996
0.09476808
0.09488815
0.08955574
0.0807043
0.07361458
0.07131132
0.07373941
0.08063801
0.09424752
0.09880729
0.09985763
0.09925791
0.09575656
0.08051692
0.02239496
0.1065684
0.1065223
0.1055222
0.1043472
0.1029104
0.1002723
0.09421199
0.08629652
0.0832104
0.08187136
0.08162341
0.08243898
0.08441682
0.0874051
0.09069594
0.09301905
0.09268917
0.08739702
0.0784947
0.07120741
0.06873453
0.07116589
0.07853569
0.09339022
0.09813454
0.09930896
0.09893779
0.09590388
0.08145743
0.02253235
0.1065995
0.1065154
0.105451
0.1041936
0.1026152
0.09961932
0.09275916
0.08513744
0.08246669
0.08145474
0.08142865
0.08231676
0.08415298
0.08672048
0.08931463
0.0908334
0.08995117
0.08463614
0.07572905
0.0684514
0.06619002
0.06904461
0.07709372
0.09290213
0.09782497
0.09912126
0.09892254
0.0961578
0.08192385
0.022629
0.1066239
0.1065244
0.1054224
0.1041052
0.1023942
0.09885025
0.09022856
0.08464795
0.08224512
0.08134475
0.08132727
0.08212847
0.08372941
0.08582201
0.08765848
0.08827461
0.0867325
0.08136084
0.07255942
0.06553869
0.06379155
0.06727363
0.07600801
0.09257844
0.09767346
0.09907931
0.09900429
0.09640055
0.08224506
0.02269445
0.1066388
0.1065311
0.1054045
0.1040407
0.1022098
0.09827316
0.08913376
0.08450235
0.08224539
0.08126654
0.0811652
0.08184922
0.0832016
0.08479442
0.08581113
0.08542053
0.08311695
0.07766908
0.06909221
0.06254683
0.06151961
0.06571322
0.07509129
0.09231901
0.0975786
0.09908065
0.09909519
0.0965919
0.08246973
0.02273806
0.1066462
0.1065318
0.1053871
0.1039884
0.1020791
0.09794261
0.08833715
0.08395636
0.08187912
0.08098009
0.08089937
0.08151951
0.08264387
0.08372719
0.08387479
0.08239472
0.07925437
0.07371687
0.06544972
0.05953033
0.05933879
0.06426367
0.07424043
0.09207117
0.09749304
0.09908208
0.09916441
0.09672661
0.08261987
0.02276641
0.1066488
0.1065275
0.1053655
0.1039302
0.1019408
0.09766287
0.08782699
0.08353966
0.08158359
0.08076102
0.08070113
0.08125479
0.08214993
0.08272313
0.08199397
0.07940864
0.07541298
0.06977173
0.06182938
0.05658015
0.05724103
0.0628655
0.07339665
0.09179915
0.09739291
0.09906713
0.09920508
0.09681243
0.08271425
0.02278399
0.1066488
0.1065198
0.1053378
0.1038515
0.1017333
0.09725856
0.08747536
0.08340586
0.08154859
0.08074609
0.0806562
0.08111257
0.08177805
0.0818823
0.08036314
0.07678391
0.07200282
0.0662345
0.05853852
0.05385967
0.0552696
0.06149059
0.07249434
0.09144331
0.09725215
0.09902707
0.09921857
0.09686015
0.08276858
0.02279413
0.1066477
0.106511
0.1053077
0.1037517
0.1014149
0.09654069
0.08726399
0.08347078
0.08166861
0.08084949
0.08070583
0.08106113
0.08153456
0.08128295
0.07918717
0.07488274
0.06949214
0.06357903
0.05597942
0.05162265
0.05355736
0.0601743
0.0714304
0.0908724
0.09701376
0.09894869
0.09920744
0.09687992
0.08279552
0.02279924
0.1066463
0.1065035
0.1052819
0.1036582
0.1010559
0.09547719
0.0872278
0.08362353
0.08181477
0.08095726
0.08076165
0.0810428
0.08140078
0.08096587
0.07859924
0.07395811
0.06825217
0.0622371
0.05457477
0.05018855
0.05236023
0.05914122
0.07020138
0.08960588
0.09654198
0.09881072
0.09917447
0.09688076
0.08280518
0.02280123
0.1066453
0.1064986
0.105267
0.1036076
0.1007669
0.09414524
0.08719284
0.08360751
0.08181604
0.08096792
0.08076346
0.08102381
0.08136666
0.08095287
0.07867047
0.07415602
0.06852799
0.06251547
0.05463352
0.04977515
0.05181825
0.05862722
0.06919371
0.08625324
0.09568652
0.09862281
0.09913126
0.09687226
0.08280572
0.02280153
0.1066449
0.1064969
0.105262
0.103594
0.1007275
0.0940418
0.08710213
0.08354714
0.08177869
0.08094225
0.08074286
0.08102114
0.08144514
0.08126495
0.0794497
0.07557017
0.07044812
0.06452982
0.05623132
0.05037676
0.05170764
0.05819092
0.06843081
0.08349852
0.09518328
0.09851641
0.09910298
0.09686392
0.08280324
0.02280125
0.1066452
0.106498
0.1052653
0.1036075
0.1008824
0.09497232
0.08697462
0.08351352
0.08176553
0.0809247
0.08072902
0.08105105
0.08163376
0.0818623
0.08083074
0.07800169
0.07373373
0.06800461
0.05918415
0.05203992
0.05224406
0.05817264
0.06813556
0.08474214
0.09521765
0.09849145
0.09909234
0.09685939
0.082801
0.02280099
0.1066463
0.1065019
0.105276
0.1036322
0.1008447
0.09440228
0.08731015
0.08363018
0.0817755
0.08089926
0.08071023
0.08110005
0.08189032
0.08261348
0.08250018
0.08089963
0.07765904
0.07218755
0.06281092
0.05441892
0.05339552
0.05871934
0.06848372
0.08338088
0.09513984
0.09850109
0.09909564
0.09685831
0.08279887
0.02280072
0.1066478
0.1065088
0.1052962
0.103694
0.1011243
0.09551532
0.08733489
0.0835802
0.08168189
0.08080247
0.0806513
0.0811419
0.08217049
0.08340362
0.08419186
0.08378573
0.08157317
0.07639613
0.06650654
0.05703117
0.05486579
0.05959714
0.06924269
0.08573018
0.09552835
0.09858034
0.09911317
0.09685774
0.08279369
0.02279979
0.1066496
0.1065175
0.1053243
0.1037837
0.101328
0.09542832
0.08765214
0.08355882
0.08156475
0.08068259
0.08058041
0.08118798
0.08246399
0.08418311
0.08578687
0.08644016
0.08514803
0.0802395
0.06990541
0.05954149
0.05636289
0.06054682
0.07035354
0.08748275
0.09608529
0.09872082
0.09914077
0.09685188
0.08277988
0.02279713
0.1066511
0.1065269
0.1053561
0.1038962
0.1018164
0.09725227
0.08760945
0.08338686
0.08142983
0.0805956
0.08055795
0.08128381
0.08279595
0.08495796
0.0872745
0.08882921
0.08830855
0.08359976
0.07291184
0.06190872
0.05791641
0.06157243
0.07159148
0.09042803
0.09686096
0.09888981
0.09916366
0.096831
0.08274968
0.02279141
0.1066513
0.1065342
0.1053805
0.1039648
0.102017
0.0977912
0.08803966
0.08367746
0.0816239
0.08073428
0.08069124
0.08148905
0.08319997
0.08575244
0.08868558
0.09099634
0.09109666
0.08650332
0.0755761
0.06424811
0.05975681
0.06299568
0.07283811
0.09138253
0.09719498
0.09897478
0.09915773
0.09678267
0.08269316
0.02278087
0.1066487
0.1065379
0.105399
0.1040127
0.1021292
0.09803668
0.08854993
0.08415386
0.08199427
0.08101421
0.08093343
0.08177859
0.08366511
0.08657014
0.09004532
0.09299272
0.0935789
0.08901336
0.07794118
0.06651665
0.06169906
0.06447592
0.07386
0.09181558
0.09735559
0.09900673
0.09912032
0.09669646
0.08259784
0.02276317
0.1066412
0.1065365
0.1054147
0.1040604
0.1022508
0.09837471
0.0894261
0.08470479
0.08233814
0.0812602
0.0811588
0.08206993
0.08414099
0.08738642
0.09135529
0.09484748
0.095805
0.09118774
0.08005024
0.06869327
0.06366617
0.06596823
0.0748017
0.09213984
0.09746764
0.09901338
0.09905313
0.09656209
0.08244811
0.02273497
0.1066259
0.1065292
0.1054317
0.104124
0.1024467
0.09907415
0.09079627
0.08469301
0.08223999
0.08126228
0.08125653
0.08229285
0.08457492
0.08816199
0.09259387
0.09656066
0.0977949
0.09306371
0.08194433
0.07079974
0.06568005
0.06753747
0.07578273
0.09243863
0.09757863
0.09901812
0.09896455
0.09637201
0.08222504
0.02269176
0.1066011
0.1065194
0.1054592
0.1042125
0.1026712
0.09981456
0.09327351
0.08523317
0.08246173
0.08140068
0.08139372
0.08249535
0.08494997
0.08885404
0.09371915
0.09810471
0.09953804
0.09465023
0.08364247
0.07286286
0.06780095
0.06928766
0.07691299
0.09278933
0.09774305
0.09906601
0.09888571
0.09613118
0.08190574
0.02262687
0.1065694
0.1065255
0.1055295
0.1043651
0.1029611
0.1004259
0.09459397
0.08651065
0.08327522
0.08186529
0.08163707
0.08265126
0.08519252
0.08937853
0.09465891
0.09942623
0.1009971
0.09592142
0.08511193
0.07485874
0.07006991
0.0713531
0.07836402
0.09329194
0.0980621
0.09925922
0.09890413
0.09587899
0.08143623
0.02253091
0.1065503
0.1066043
0.1057259
0.104685
0.1034523
0.1011985
0.09546658
0.0883276
0.08438353
0.08235563
0.08170013
0.08251086
0.08510437
0.08959048
0.09531242
0.1004546
0.1021157
0.09681342
0.08623832
0.07664013
0.07240824
0.07383882
0.08041316
0.09414142
0.09873783
0.09981207
0.0992276
0.09573431
0.08049791
0.02239412
0.1066023
0.106876
0.1061976
0.1053418
0.10434
0.1026546
0.09859684
0.09056714
0.08523798
0.08222655
0.08104637
0.08170174
0.08445392
0.08935217
0.09559233
0.1011245
0.1028336
0.09724059
0.08682481
0.07786812
0.07443031
0.07657662
0.08338219
0.09570561
0.1001156
0.1010901
0.100275
0.09616293
0.07957997
0.0221982
0.1068069
0.1073904
0.1069638
0.1063583
0.1056437
0.1044456
0.1016388
0.09464507
0.0850737
0.08084437
0.07937529
0.08014564
0.08326269
0.08869575
0.09549565
0.1013967
0.1030912
0.09715527
0.08669221
0.07809101
0.07531708
0.07863186
0.0872164
0.09849123
0.102499
0.1033682
0.102502
0.09804565
0.07986182
0.02195902
0.1066849
0.1071218
0.1068962
0.1066338
0.1063439
0.1058137
0.1043363
0.09936626
0.08508892
0.07938108
0.0777093
0.07867755
0.08213416
0.08796088
0.09511601
0.101209
0.1028189
0.0965719
0.08594675
0.07729839
0.07449963
0.0786459
0.09268782
0.1025567
0.1051032
0.1056299
0.1052003
0.1022559
0.0860529
0.0233773
0.1068068
0.1073894
0.1069609
0.1063509
0.1056264
0.1044109
0.1015933
0.0945789
0.08498117
0.08075335
0.07924033
0.07983224
0.08249681
0.08704536
0.09251548
0.09697315
0.09777057
0.09207245
0.08295914
0.07606159
0.07457333
0.07868737
0.08763351
0.09867875
0.1025748
0.1034036
0.1025223
0.09806129
0.07987655
0.02195971
0.1061568
0.1077618
0.1081531
0.1074743
0.1060916
0.1037976
0.09974684
0.09344463
0.08712746
0.08311747
0.08127337
0.08144524
0.08366155
0.08772745
0.09272013
0.09681802
0.09752595
0.09210207
0.08324148
0.07650953
0.07508156
0.07881759
0.08608736
0.09391986
0.0982235
0.0990195
0.09638989
0.08744565
0.06363589
0.01661635
0.1052772
0.1062827
0.1068212
0.1062488
0.1047181
0.1021275
0.09789728
0.09288758
0.08824504
0.08492197
0.0831596
0.08309524
0.08485345
0.08827434
0.09252858
0.0959973
0.09645348
0.09131396
0.08273636
0.07606106
0.07434136
0.07725914
0.08311126
0.08964779
0.09355618
0.0940816
0.09089206
0.08136906
0.05855301
0.01593976
0.104914
0.1052357
0.105328
0.1044777
0.1027148
0.09994537
0.09603081
0.09169178
0.08802029
0.08539712
0.08398876
0.08396743
0.08547187
0.08835405
0.09187103
0.09462437
0.09471086
0.08974128
0.08128722
0.07445595
0.07228323
0.07448353
0.07955976
0.08573913
0.08958108
0.09025365
0.08751622
0.07909318
0.05820553
0.01635895
0.1048247
0.1047966
0.1045003
0.1033159
0.1012677
0.09822083
0.09410952
0.09004889
0.0869693
0.08492327
0.08392515
0.08407861
0.08547266
0.08792726
0.0907457
0.09273255
0.09234258
0.08743206
0.0790083
0.07200244
0.06956036
0.07150908
0.07653751
0.08304748
0.08716953
0.08826514
0.08627028
0.07906043
0.05949497
0.01678291
0.1048264
0.1046588
0.1041378
0.1027116
0.1004189
0.09707253
0.0928093
0.088871
0.08607137
0.08432964
0.08356769
0.08381665
0.08508779
0.08712485
0.08922327
0.09036067
0.08938236
0.0844623
0.07609275
0.06907611
0.06671589
0.06888219
0.07431801
0.08143598
0.08598056
0.0875439
0.08619088
0.07982662
0.06089043
0.01708097
0.1048456
0.1046262
0.1039858
0.1024056
0.0999286
0.09629011
0.09190328
0.08812031
0.08550195
0.08389856
0.08321123
0.08343967
0.08451935
0.08608802
0.08738848
0.08755448
0.08587036
0.08091044
0.07269786
0.06591295
0.06397807
0.06667556
0.07270997
0.08048064
0.08544606
0.08741412
0.08652828
0.0806914
0.06203084
0.01727909
0.1048601
0.104618
0.1039105
0.1022316
0.09962017
0.09573643
0.0912784
0.08764091
0.08509056
0.08352044
0.08284255
0.08301108
0.08386653
0.0849149
0.08531756
0.08437289
0.08187375
0.07687147
0.06894432
0.06262946
0.06138347
0.06478022
0.07145959
0.0798418
0.08517946
0.08747276
0.08691381
0.08140301
0.06286411
0.01740839
0.1048662
0.1046081
0.1038565
0.1021104
0.09940647
0.09535152
0.09073143
0.08712616
0.08464621
0.08313531
0.08248249
0.08259348
0.08321107
0.08369436
0.08310401
0.08092715
0.07753726
0.07250855
0.06497102
0.05930203
0.05890674
0.06306939
0.07037909
0.07930213
0.08497858
0.08753699
0.08721213
0.08191027
0.06343065
0.01749098
0.1048655
0.1045904
0.103801
0.1019968
0.09921841
0.09504742
0.09034951
0.0867636
0.0843345
0.08286692
0.08222354
0.08226282
0.08262931
0.08252616
0.08090039
0.07744931
0.0731603
0.06811994
0.06100046
0.05603601
0.05653237
0.06144598
0.06933981
0.07875443
0.08475726
0.08754146
0.08739437
0.08223467
0.06379176
0.01754152
0.1048606
0.104566
0.1037374
0.1018712
0.09902134
0.09479856
0.09014738
0.08662278
0.08422775
0.08276848
0.08210159
0.08205006
0.08217168
0.08152648
0.07895423
0.07435075
0.06924637
0.06416995
0.05737888
0.05300965
0.05429722
0.05986535
0.06825325
0.07810187
0.0844673
0.08746713
0.08747049
0.0824161
0.06400313
0.01757019
0.1048542
0.1045402
0.1036734
0.1017414
0.09881199
0.09458704
0.0900516
0.08659974
0.08423073
0.08276654
0.08206491
0.08192765
0.0818542
0.08080745
0.07755499
0.0721222
0.06637803
0.06120153
0.05455229
0.05049045
0.05233104
0.05838599
0.0671178
0.07729872
0.08405544
0.08730528
0.08746038
0.08249407
0.06411014
0.01758431
0.1048484
0.1045186
0.1036211
0.1016334
0.09862569
0.09442768
0.09001301
0.08661192
0.08425334
0.08277835
0.08204692
0.0818518
0.08166964
0.08042803
0.07686896
0.07105941
0.06497374
0.05968925
0.0529815
0.04880763
0.05085846
0.05720072
0.06606657
0.07631987
0.08348202
0.08705953
0.08738857
0.08250436
0.06414966
0.01758942
0.1048445
0.1045049
0.1035896
0.101568
0.09848597
0.09427991
0.08990745
0.08654369
0.08421206
0.08274697
0.08200936
0.08179961
0.08161429
0.08041483
0.07696883
0.07130952
0.06529645
0.05997249
0.05302544
0.04824245
0.05004333
0.05644586
0.06530411
0.07533435
0.08282866
0.08678761
0.08729403
0.08248154
0.06415279
0.01758974
0.104843
0.1044998
0.1035781
0.1015459
0.0984443
0.09421325
0.08984295
0.08649172
0.08417083
0.08270975
0.08197328
0.08178475
0.08170331
0.08080099
0.07793697
0.07302152
0.06752931
0.06220795
0.05481337
0.04892621
0.04988339
0.05597513
0.06469121
0.07461886
0.08241221
0.08660811
0.08722351
0.0824558
0.06414488
0.0175886
0.104844
0.1045029
0.1035848
0.1015604
0.09848278
0.09422041
0.08984973
0.08649921
0.08416805
0.08269615
0.08196043
0.08182053
0.08193188
0.0815422
0.07966443
0.07600043
0.07139812
0.06613453
0.05814375
0.05088726
0.05056099
0.0560468
0.06452308
0.07441689
0.08228583
0.08654239
0.08719348
0.0824416
0.06413837
0.01758788
0.1048475
0.1045144
0.1036103
0.1016083
0.0985594
0.09438039
0.08997616
0.08656306
0.08418856
0.08269463
0.08196447
0.08189503
0.08224605
0.0824562
0.08170685
0.07949495
0.0759862
0.07087361
0.06223947
0.05369868
0.0519855
0.05670826
0.06487673
0.07460082
0.08237073
0.08657935
0.08720311
0.08243878
0.06413273
0.01758743
0.1048533
0.1045343
0.1036554
0.1016973
0.09872274
0.09452543
0.09005881
0.0865832
0.08417081
0.08266794
0.08196268
0.08198633
0.08259301
0.08338794
0.08369444
0.08285141
0.08044747
0.07558505
0.06638009
0.05676315
0.05380408
0.05776252
0.06562842
0.07524369
0.08271867
0.08671891
0.08724341
0.08243506
0.06411515
0.01758524
0.1048605
0.1045601
0.1037161
0.1018179
0.09890923
0.09476883
0.09017766
0.08660641
0.08415033
0.08264164
0.08197082
0.08209867
0.08295654
0.08427972
0.08549696
0.08582969
0.08441595
0.07982426
0.07015785
0.05970667
0.05571136
0.05895206
0.06656742
0.07617974
0.08328407
0.08694038
0.08729291
0.08240731
0.06406363
0.0175782
0.1048677
0.1045876
0.1037827
0.101952
0.09913105
0.09489853
0.09020068
0.08660464
0.08415323
0.08266218
0.08203397
0.08226498
0.08335544
0.08514183
0.08712576
0.08843304
0.08784821
0.08348124
0.07346096
0.06243499
0.05765557
0.06025065
0.06759147
0.07722771
0.08391985
0.08716724
0.08730921
0.08232112
0.06394785
0.01756238
0.1048726
0.1046106
0.1038402
0.1020646
0.09932103
0.09519374
0.09049782
0.08686417
0.0843697
0.08284877
0.08222506
0.08252917
0.08381852
0.08600544
0.08863567
0.09074488
0.09082704
0.08660631
0.07633572
0.06501239
0.05974765
0.06182619
0.06880875
0.07813779
0.0843639
0.08729291
0.08724127
0.08213482
0.06372981
0.01753255
0.1048729
0.1046262
0.1038894
0.1021644
0.0994888
0.09548576
0.09090393
0.08728046
0.08474035
0.08316889
0.08252699
0.08288319
0.0843458
0.08688588
0.09007149
0.09284576
0.09345082
0.08928809
0.07885118
0.06744655
0.06189937
0.06349958
0.06999909
0.07885089
0.08465479
0.08731371
0.0870636
0.08180762
0.06336457
0.01748158
0.1048662
0.1046345
0.1039399
0.1022787
0.09969264
0.09586472
0.09146098
0.08779626
0.08517393
0.08353725
0.08287364
0.08328016
0.08490726
0.08777225
0.09144933
0.09478354
0.09578971
0.09160276
0.08107404
0.0697574
0.06407954
0.06524013
0.07119895
0.07950879
0.0848913
0.087264
0.08676954
0.0813005
0.06279704
0.01739933
0.104851
0.1046411
0.104013
0.1024506
0.1000024
0.09643502
0.09207256
0.08823857
0.08554463
0.08387428
0.08320912
0.08367309
0.08546079
0.08863205
0.09275516
0.09656831
0.09787451
0.09359633
0.08305513
0.07198215
0.06632468
0.06711728
0.07251432
0.08021898
0.08519096
0.08722019
0.08639059
0.08059224
0.06196587
0.01727101
0.1048309
0.1046718
0.1041627
0.1027555
0.1004961
0.0972231
0.09296807
0.08897808
0.08612444
0.08433333
0.08359319
0.08405593
0.08596352
0.08941242
0.09394592
0.09817583
0.09969866
0.09527822
0.08480905
0.07414009
0.06869497
0.06927065
0.07416002
0.08122779
0.0857562
0.08736595
0.08606177
0.07973305
0.06082968
0.01707428
0.1048282
0.1048075
0.1045228
0.1033581
0.1013443
0.09836765
0.09429707
0.09018542
0.08704215
0.08495418
0.08398292
0.08433542
0.08630578
0.09001318
0.09494442
0.09955284
0.1012253
0.09661798
0.08628748
0.07617213
0.07118265
0.07181304
0.07638244
0.08286075
0.08696754
0.088102
0.08615032
0.07897302
0.05943789
0.01677783
0.1049167
0.1052448
0.1053484
0.1045185
0.1027902
0.100076
0.09608104
0.09169034
0.08800854
0.08539689
0.08404834
0.08423053
0.08627111
0.09028075
0.09564741
0.1006292
0.1023989
0.09754829
0.08736071
0.07787944
0.07359331
0.07468526
0.0793671
0.08554115
0.08939117
0.09010429
0.08740677
0.07901356
0.05815468
0.01635539
0.105279
0.1062895
0.1068373
0.1062818
0.1047814
0.1022384
0.09805484
0.09302803
0.08834179
0.08499136
0.08326356
0.08338162
0.08563508
0.09008039
0.09596922
0.1013419
0.1031633
0.09798869
0.08784274
0.07891252
0.07542956
0.07738458
0.08286208
0.08941738
0.09337605
0.09395169
0.09079989
0.08130218
0.0585106
0.01593746
0.1061578
0.107766
0.1081634
0.1074967
0.1061367
0.1038787
0.09985992
0.09357153
0.08726026
0.08322158
0.08140688
0.08175227
0.08443664
0.0894488
0.09590723
0.1016527
0.1034704
0.09790351
0.08761735
0.07895421
0.0760385
0.0789054
0.08578609
0.09367054
0.09807013
0.09892547
0.0963287
0.08740183
0.06360697
0.01661516
0.1068069
0.1073904
0.1069638
0.1063584
0.1056436
0.1044399
0.1015096
0.09374518
0.08522125
0.0808969
0.07939276
0.0801544
0.08327212
0.08871724
0.09554542
0.1014893
0.1032302
0.09732858
0.08686234
0.07822123
0.07539662
0.07867378
0.08723496
0.09849488
0.1025003
0.103369
0.1025032
0.09804836
0.07986708
0.0219596
0.106602
0.1068744
0.1061932
0.1053306
0.1043141
0.1026162
0.09865925
0.09044028
0.08516333
0.08219252
0.08097435
0.08144712
0.08374023
0.0877378
0.09260432
0.0966136
0.09732916
0.09197711
0.08300638
0.0759213
0.07384121
0.07669037
0.08371153
0.09583985
0.10019
0.101137
0.1003086
0.09619175
0.07960779
0.02219978
0.1052772
0.1062829
0.1068218
0.1062504
0.1047233
0.1021456
0.09793377
0.09290475
0.08825868
0.08493589
0.08317267
0.08311147
0.08488965
0.08836804
0.09273676
0.09636837
0.09697918
0.09191988
0.08328305
0.07645334
0.07456748
0.07736064
0.08313784
0.08965601
0.0935645
0.09409277
0.09090725
0.08138866
0.05857268
0.01594294
0.1039374
0.1038889
0.1048869
0.1052304
0.1043928
0.1022759
0.09874528
0.09453071
0.09046381
0.08724521
0.08527174
0.08481119
0.08603595
0.08881533
0.09240959
0.09537594
0.09570775
0.09096802
0.08277486
0.07621849
0.07430713
0.07663151
0.08127615
0.086008
0.08858513
0.08800346
0.0831378
0.07149873
0.04865497
0.01321546
0.1033492
0.1022374
0.1025936
0.102847
0.1022301
0.1004869
0.09763306
0.09418758
0.09080916
0.08802848
0.08622446
0.08568435
0.08657991
0.0887766
0.09159818
0.09380636
0.09373525
0.08920341
0.08130974
0.07480612
0.07260947
0.07428423
0.07796336
0.08165002
0.08350426
0.08251028
0.07747118
0.06621647
0.04507346
0.01273484
0.1031647
0.1015176
0.1012529
0.1010389
0.1001765
0.09838149
0.09573459
0.09273363
0.08989949
0.08760426
0.08613128
0.08571157
0.08646449
0.08821021
0.090298
0.09168592
0.09109572
0.08665212
0.07893197
0.07236743
0.06988306
0.07110527
0.07429561
0.07765544
0.07946415
0.07878837
0.07450577
0.06454749
0.04498535
0.01304798
0.103128
0.1012737
0.100657
0.1000664
0.09889221
0.09686922
0.09417862
0.09132826
0.08877343
0.0867891
0.08557004
0.08526859
0.0859161
0.08723989
0.08856374
0.08902782
0.08779483
0.08336384
0.07580171
0.06925437
0.06673426
0.06793245
0.07120016
0.07483146
0.07705018
0.0770336
0.07371065
0.06495043
0.04628001
0.01342803
0.1031313
0.101206
0.1004167
0.09959709
0.0981895
0.09593666
0.09312493
0.09030349
0.08786783
0.08603281
0.08493962
0.08467414
0.08516609
0.08601122
0.08646226
0.08584482
0.08384096
0.07940097
0.07208229
0.06576119
0.0635566
0.06514265
0.06887918
0.0730845
0.07586825
0.07652622
0.0740046
0.06607019
0.04776352
0.01371238
0.1031386
0.1011865
0.1003098
0.09935749
0.09779549
0.09536164
0.09243228
0.08958791
0.08718301
0.08540728
0.08436439
0.08407506
0.08435321
0.0846287
0.08404753
0.08215685
0.07926983
0.07485152
0.06791595
0.06206884
0.0604998
0.06275172
0.06714
0.07199598
0.07532832
0.076546
0.07460476
0.06718723
0.04898538
0.01390277
0.103141
0.1011716
0.1002421
0.09920723
0.09754266
0.09498134
0.09194066
0.08905364
0.08665696
0.08491345
0.08389103
0.08354522
0.08356223
0.0831737
0.08138799
0.0780429
0.07421092
0.06988806
0.06346917
0.05829768
0.05757973
0.06062889
0.0657044
0.07116987
0.07502211
0.07667617
0.07514183
0.06804787
0.04985981
0.01402424
0.103138
0.1011504
0.1001789
0.0990816
0.09733546
0.09469356
0.09159146
0.08868164
0.08629259
0.08456845
0.08354806
0.08312543
0.08285359
0.08174319
0.0786415
0.07375812
0.06900912
0.06485717
0.05900609
0.05458533
0.05479117
0.05865419
0.06438896
0.07041437
0.0747387
0.07673753
0.07549715
0.06861799
0.05042905
0.01409779
0.1031316
0.1011233
0.1001118
0.09895801
0.09714415
0.09446519
0.09135644
0.0884539
0.08607728
0.08436246
0.0833301
0.08282362
0.08227521
0.08048747
0.07615532
0.06987804
0.06433101
0.0603269
0.054935
0.05113792
0.05216757
0.05676304
0.06308528
0.06961278
0.07438408
0.07667538
0.07566429
0.06894151
0.05076337
0.01413852
0.1031241
0.1010954
0.100047
0.098841
0.09696533
0.09426949
0.09118161
0.08830487
0.08594802
0.08424097
0.08319392
0.0826169
0.08185928
0.07958422
0.07439118
0.06714178
0.06095146
0.05694027
0.05176483
0.04824478
0.04982423
0.05499255
0.06179468
0.06874428
0.07392874
0.07649023
0.07567793
0.06908137
0.05092991
0.01415741
0.1031175
0.101072
0.09999447
0.09874678
0.0968199
0.09411324
0.0910491
0.08819631
0.08585568
0.08415329
0.08309403
0.08247377
0.08160976
0.07911449
0.07355527
0.06588129
0.05932866
0.05521133
0.05000102
0.04625956
0.04796689
0.05348769
0.0606302
0.0678756
0.07339905
0.07621786
0.07558943
0.06910149
0.05098742
0.01416281
0.1031131
0.1010569
0.09996153
0.09868817
0.09672424
0.09399476
0.09093564
0.08809814
0.08577102
0.08407345
0.08300856
0.08237937
0.08152655
0.07910154
0.07369436
0.06620249
0.05971805
0.05550094
0.05004885
0.0455473
0.04683021
0.05240433
0.05972415
0.06713257
0.07288958
0.07593378
0.07546362
0.06906375
0.05098749
0.01416128
0.1031114
0.1010511
0.09994891
0.0986659
0.09668798
0.09394639
0.09088348
0.08804725
0.08572064
0.08401885
0.08294961
0.0823456
0.08163122
0.07960465
0.07496166
0.06836038
0.06239113
0.05801822
0.05208183
0.04637048
0.0466144
0.05183908
0.0591246
0.06660222
0.07253619
0.07573146
0.07536383
0.06902062
0.05097244
0.0141584
0.1031125
0.1010546
0.09995612
0.09867835
0.09670936
0.09397057
0.09090525
0.08806137
0.08572253
0.08400654
0.08293375
0.08238559
0.08192039
0.08058643
0.07728774
0.07224031
0.06714221
0.06256477
0.055882
0.04873884
0.04750591
0.05200949
0.05904278
0.06645541
0.07241926
0.07565634
0.07532246
0.06899977
0.05096403
0.01415747
0.1031165
0.1010676
0.09998358
0.098726
0.09678271
0.0940649
0.09099488
0.0881311
0.08576878
0.08403352
0.08296176
0.08248916
0.08231864
0.08176748
0.07996654
0.07672257
0.07275531
0.0681023
0.06059332
0.05212948
0.04935398
0.05291287
0.05951377
0.06671539
0.07254344
0.07571213
0.07534134
0.06900091
0.05096098
0.01415811
0.1031229
0.1010894
0.1000306
0.09880786
0.09690872
0.09420586
0.0911174
0.08822373
0.08583452
0.08408355
0.08302294
0.08263786
0.08275636
0.08291691
0.08242856
0.08081928
0.07803623
0.07352896
0.0653171
0.05577803
0.05168448
0.05429442
0.06039258
0.06730659
0.07287954
0.07587663
0.07539771
0.06899919
0.0509408
0.01415684
0.1031311
0.1011177
0.1000928
0.0989175
0.09707424
0.09439159
0.09127687
0.08834775
0.08592958
0.0841657
0.08312335
0.0828297
0.08321138
0.08397097
0.0845444
0.08428319
0.08257639
0.0783226
0.06958621
0.05925435
0.0541393
0.05589097
0.06147817
0.06808746
0.07335327
0.07609925
0.07544635
0.06894977
0.0508654
0.01414857
0.1031394
0.101148
0.1001613
0.099039
0.09725764
0.09457896
0.09144611
0.08850286
0.0860741
0.08430833
0.08328948
0.08308402
0.0836981
0.08495495
0.08637749
0.08719725
0.0863963
0.08239407
0.07327869
0.06242199
0.0565836
0.05760185
0.06267133
0.06893129
0.07384989
0.07629547
0.07542094
0.06879192
0.05068481
0.01412713
0.1031459
0.1011745
0.1002254
0.09915594
0.09744363
0.09482447
0.09172244
0.08878553
0.08634694
0.0845704
0.08356284
0.08342933
0.08424228
0.08591521
0.08802798
0.08971622
0.08964723
0.08583442
0.07644845
0.0653145
0.05903854
0.05946627
0.06400439
0.06980598
0.07426917
0.07638142
0.07525156
0.06845666
0.05033945
0.01408462
0.1031486
0.1011942
0.1002843
0.09927326
0.09763667
0.0951076
0.09208577
0.08918736
0.08674923
0.0849579
0.08395046
0.08387245
0.08485522
0.08688342
0.08957213
0.09196789
0.09247651
0.08876873
0.0791929
0.06798529
0.06149331
0.06143057
0.06540186
0.07065122
0.07459996
0.07633755
0.07489642
0.06787965
0.04976293
0.01401032
0.1031457
0.1012074
0.1003489
0.0994188
0.09788177
0.09548328
0.09257878
0.08972518
0.08727998
0.08546137
0.08443961
0.08439994
0.08552736
0.08786504
0.09104684
0.09402824
0.09498403
0.0912974
0.08160258
0.07049586
0.06397528
0.06352346
0.06692252
0.07156164
0.07494081
0.07622194
0.07436294
0.06701759
0.04888584
0.01388916
0.1031376
0.1012251
0.1004532
0.09965573
0.09827372
0.09605861
0.09326922
0.09043307
0.08795516
0.0860818
0.08501669
0.08498609
0.08622794
0.0888363
0.09244915
0.0959223
0.09721616
0.09347743
0.0837357
0.07289514
0.06654057
0.06584888
0.06873134
0.0727422
0.07551223
0.0762187
0.0737707
0.06590423
0.04766574
0.01370003
0.1031334
0.1012906
0.1006906
0.1001225
0.09897609
0.09699501
0.09432388
0.09146465
0.08887793
0.08686239
0.08567114
0.08558308
0.08689268
0.08973666
0.09373719
0.09763197
0.09917273
0.09531849
0.08559589
0.07517719
0.06921584
0.06853251
0.0710848
0.07455541
0.07672296
0.07674422
0.0734874
0.06479113
0.04618678
0.01341752
0.1031692
0.1015323
0.1012837
0.1010927
0.1002599
0.09850846
0.09588408
0.09287506
0.09001394
0.08769523
0.0862527
0.08603003
0.08737524
0.09045004
0.09483006
0.09910613
0.1008192
0.09678497
0.0871114
0.07722361
0.07188882
0.07156766
0.07416959
0.07740281
0.0791593
0.07851768
0.07429495
0.06439611
0.04489721
0.01303947
0.1033529
0.1022503
0.102622
0.1028986
0.102312
0.1006075
0.09774769
0.0942908
0.09089707
0.08810773
0.08634401
0.08599431
0.08743234
0.09081189
0.09562275
0.1002774
0.1021034
0.09780717
0.08813384
0.07876912
0.07420159
0.07460432
0.07780041
0.08139691
0.08322266
0.08226554
0.07728039
0.06607814
0.04499272
0.01272815
0.1039403
0.1038996
0.1049108
0.1052751
0.1044676
0.102393
0.09888986
0.09466946
0.09057231
0.08733121
0.08539038
0.08510946
0.08683825
0.09068803
0.09603211
0.1010873
0.1029759
0.09831357
0.08849265
0.07946553
0.07557112
0.07683474
0.08107814
0.08576361
0.08834354
0.08780465
0.08298574
0.07138729
0.04858816
0.01321068
0.1052791
0.1062899
0.1068381
0.1062833
0.1047842
0.1022444
0.09806432
0.09304399
0.0883621
0.08500957
0.08327831
0.08339435
0.08565258
0.09011852
0.09605266
0.1014942
0.1033918
0.09827995
0.08813621
0.07914518
0.07557617
0.07746343
0.08290067
0.08943695
0.09338836
0.09396431
0.09081528
0.08132133
0.05852963
0.0159405
0.1066023
0.1068761
0.106198
0.1053427
0.1043422
0.1026576
0.09858084
0.09054215
0.08528149
0.08226177
0.08107144
0.08172143
0.08448043
0.08941215
0.09572662
0.1013712
0.1032028
0.09770812
0.0872891
0.07822882
0.0746519
0.07669042
0.08343062
0.09571787
0.1001229
0.1010969
0.1002827
0.09617303
0.07959328
0.02219934
0.1065497
0.1066022
0.1057204
0.104671
0.1034258
0.1012956
0.09653036
0.08808784
0.08439272
0.08242905
0.08170945
0.08231766
0.08444307
0.08801862
0.09233422