/*--------------------------------*- C++ -*----------------------------------*\
| =========                 |                                                 |
| \\      /  F ield         | OpenFOAM: The Open Source CFD Toolbox           |
|  \\    /   O peration     | Version:  2506                                  |
|   \\  /    A nd           | Website:  www.openfoam.com                      |
|    \\/     M anipulation  |                                                 |
\*---------------------------------------------------------------------------*/
FoamFile
{
    version     2.0;
    format      ascii;
    arch        "LSB;label=32;scalar=64";
    class       volScalarField;
    location    "250/airRegion";
    object      epsilon;
}
// * * * * * * * * * * * * * * * * * * * * * * * * * * * * * * * * * * * * * //

dimensions      [0 2 -3 0 0 0 0];

internalField   nonuniform List<scalar> 
85779
(
0.008338262
0.007762251
0.007623708
0.00758026
0.007561618
0.007536964
0.007420524
0.006814689
0.003234167
0.001867853
0.001227011
0.0008810384
0.0006818671
0.0005674959
0.0005059631
0.0004782329
0.0004799169
0.0005284746
0.0006479647
0.0008964544
0.001408003
0.002537705
0.005393373
0.00725523
0.00753925
0.007615037
0.007683263
0.0078712
0.008979341
0.02346783
0.007929305
0.006988046
0.006693058
0.00657867
0.006514914
0.006428157
0.006140142
0.004933058
0.002638407
0.0016507
0.001136206
0.0008395378
0.0006622494
0.0005587087
0.000502867
0.0004774862
0.0004775346
0.0005170557
0.0006182238
0.0008273776
0.001231829
0.002002115
0.003458338
0.005984706
0.006450272
0.006605044
0.006729723
0.006980011
0.008070473
0.01945055
0.007936794
0.006913442
0.006555644
0.006400653
0.006301227
0.006146456
0.005605905
0.003296536
0.0020936
0.001431263
0.001038397
0.000794079
0.0006407108
0.0005476819
0.0004952664
0.0004690454
0.0004645885
0.0004943188
0.000580072
0.0007596557
0.001099629
0.001731737
0.002966071
0.0057017
0.006227504
0.006424135
0.006584122
0.006863932
0.007958112
0.02009385
0.007987255
0.006957153
0.006579703
0.006404684
0.006273649
0.005996855
0.004472941
0.002775535
0.001838969
0.001302305
0.0009721155
0.0007602668
0.0006235549
0.0005381194
0.0004876649
0.0004595637
0.0004498265
0.0004699001
0.0005432653
0.0007051589
0.00101743
0.001610709
0.002823129
0.00565509
0.006215315
0.006441864
0.006626659
0.006920086
0.007998567
0.02063188
0.008026433
0.007003628
0.006621034
0.006436251
0.00628677
0.005976
0.004766311
0.002647408
0.001729627
0.001232833
0.0009309792
0.0007369052
0.0006103891
0.0005297007
0.0004799526
0.0004493703
0.0004340437
0.0004447333
0.0005077912
0.0006589898
0.0009600911
0.001544587
0.00276557
0.005654468
0.006243571
0.006494919
0.006697934
0.006996962
0.008054984
0.02101395
0.008051424
0.00703567
0.006651681
0.00646043
0.006293493
0.005925061
0.004513965
0.002490147
0.001639327
0.00117977
0.0008996324
0.0007184241
0.0005990912
0.0005215254
0.000471737
0.0004383768
0.0004173438
0.000418857
0.0004727385
0.0006164304
0.000911926
0.001494049
0.00272375
0.005652385
0.00626864
0.006541872
0.006759524
0.007063028
0.008122008
0.02128545
0.008066225
0.007055051
0.006670158
0.006473324
0.006289782
0.005843949
0.003641573
0.002281105
0.001550196
0.001132296
0.0008725835
0.0007022961
0.0005885925
0.0005132198
0.0004629929
0.0004267452
0.0003999703
0.0003924504
0.0004378401
0.0005754661
0.0008667469
0.00144644
0.002680672
0.005639134
0.006281441
0.006574624
0.006804741
0.007111839
0.008171547
0.02147051
0.008074504
0.007065776
0.006679803
0.006478046
0.006278128
0.005768439
0.003291363
0.002111947
0.001474354
0.001094171
0.0008509315
0.0006886706
0.0005789263
0.0005049626
0.00045405
0.0004148786
0.0003823171
0.0003658644
0.0004034066
0.0005358861
0.0008231477
0.001399106
0.00263394
0.005614865
0.006282124
0.006593839
0.006835055
0.007145513
0.008205343
0.02159433
0.008078904
0.007071224
0.006683927
0.006477938
0.006267308
0.005727999
0.003198497
0.002047878
0.00143589
0.001070147
0.0008349917
0.0006774079
0.0005702058
0.0004971131
0.0004454012
0.0004032946
0.0003648612
0.0003395844
0.0003700587
0.0004982333
0.0007814724
0.001352466
0.002584644
0.005581634
0.006273112
0.006602205
0.006853547
0.007167442
0.00822748
0.02167491
0.008081241
0.007073935
0.006685237
0.006474766
0.006252278
0.005684518
0.003146937
0.002008424
0.00140863
0.001051357
0.0008217265
0.0006676367
0.0005624183
0.0004899922
0.0004374801
0.0003924683
0.000348152
0.0003143364
0.0003386204
0.0004631891
0.0007423393
0.001307404
0.002534208
0.005537934
0.006256868
0.006602613
0.006863267
0.007180691
0.008241225
0.02172488
0.008082656
0.007075595
0.006685639
0.006469353
0.006225323
0.005591242
0.003067697
0.001959644
0.001379243
0.001032923
0.0008094958
0.0006589486
0.00055561
0.0004837864
0.0004305286
0.0003828086
0.0003329973
0.0002913815
0.0003101887
0.0004312846
0.0007056991
0.001263095
0.002480645
0.005479163
0.006235059
0.006597622
0.006866896
0.007187809
0.008249078
0.02175349
0.00808357
0.007076697
0.00668562
0.006461784
0.006179597
0.005360347
0.002945184
0.001902189
0.001349357
0.001015728
0.0007987146
0.0006515525
0.0005498915
0.0004785617
0.0004246884
0.0003748484
0.0003207045
0.0002726614
0.0002861965
0.0004028852
0.0006702539
0.001214324
0.002411319
0.005401285
0.006206279
0.006588799
0.006866605
0.007190859
0.008252974
0.02176777
0.008084129
0.00707736
0.006685325
0.006454173
0.006126678
0.004969405
0.002811833
0.001850185
0.00132456
0.001002085
0.0007903408
0.0006458169
0.000545385
0.0004743899
0.0004201811
0.0003692788
0.0003127784
0.0002603359
0.0002683381
0.0003786409
0.0006342925
0.001150562
0.002286103
0.005215213
0.006155389
0.006575844
0.006864044
0.007191489
0.008254428
0.02177312
0.008084368
0.007077562
0.006684876
0.006450617
0.006090327
0.004389708
0.002723748
0.001823149
0.001311312
0.0009941962
0.000785148
0.0006420159
0.0005421913
0.000471341
0.0004171598
0.0003665017
0.0003101289
0.0002559994
0.0002584114
0.0003606671
0.0006015217
0.001076229
0.002065597
0.004496988
0.006056155
0.006559612
0.006860701
0.007190969
0.00825459
0.02177368
0.008084449
0.007077618
0.006684726
0.006449726
0.006086866
0.004378676
0.002714899
0.00181707
0.00130716
0.0009912794
0.0007829574
0.0006401591
0.0005403655
0.0004694257
0.0004154883
0.0003662018
0.0003124807
0.0002599581
0.0002577295
0.0003522688
0.0005831528
0.001038304
0.001963079
0.003916678
0.0060093
0.006551294
0.006858374
0.007190223
0.008254291
0.02177268
0.008084449
0.007077643
0.006684903
0.006450592
0.006108228
0.004883357
0.002765793
0.001825447
0.001309931
0.000992619
0.0007835819
0.0006402769
0.0005400407
0.0004687745
0.0004150727
0.0003676374
0.0003180859
0.0002701727
0.0002658127
0.0003540643
0.0005787793
0.001029188
0.001969811
0.004318526
0.006018128
0.006549668
0.006857474
0.007189767
0.008254018
0.02177198
0.008084338
0.007077566
0.006685216
0.006452428
0.006098178
0.004431571
0.002745963
0.001836361
0.001318927
0.0009983322
0.0007871028
0.0006424494
0.0005413715
0.0004696579
0.000416211
0.0003706341
0.0003253474
0.0002831564
0.0002797367
0.0003648556
0.0005869866
0.001036302
0.001955731
0.003903982
0.006006448
0.006550373
0.006857689
0.007189559
0.008253747
0.02177142
0.008084008
0.00707721
0.00668558
0.006456681
0.006135433
0.004976943
0.002842423
0.001873183
0.00133813
0.001009331
0.0007937597
0.0006467522
0.0005444439
0.0004722652
0.0004191999
0.0003753988
0.000333906
0.0002972899
0.0002971167
0.000382753
0.0006078419
0.001069673
0.002037119
0.004420038
0.006042834
0.006556488
0.006858715
0.007189105
0.008252976
0.02176903
0.008083451
0.007076545
0.006685819
0.006463279
0.006158733
0.004743218
0.002915415
0.001921276
0.00136455
0.00102452
0.0008030984
0.0006529965
0.0005491795
0.0004765777
0.0004240728
0.0003820287
0.0003438732
0.0003123407
0.0003169257
0.0004065902
0.0006414402
0.001132726
0.002178382
0.004695813
0.006098126
0.006567374
0.00685971
0.007187528
0.008250883
0.02176178
0.008082605
0.007075559
0.006686099
0.006472693
0.006237885
0.005610146
0.003110089
0.001989327
0.001396605
0.001042482
0.0008143627
0.0006608181
0.0005553799
0.0004824341
0.000430667
0.0003904337
0.0003553742
0.0003286005
0.0003388841
0.0004348231
0.0006828626
0.00121299
0.002388017
0.005328572
0.006189161
0.006580929
0.00685922
0.007183659
0.008246399
0.02174579
0.008081441
0.007074391
0.006686316
0.006477884
0.006261407
0.005707492
0.003172835
0.002028006
0.001421714
0.001059496
0.0008263465
0.0006697614
0.0005627891
0.0004895906
0.0004387121
0.0004004008
0.0003684266
0.0003463979
0.0003629786
0.0004657491
0.0007235524
0.001271792
0.002480326
0.005454779
0.006223435
0.006586797
0.006854952
0.007175988
0.008238149
0.02171605
0.008079261
0.007071969
0.006685323
0.006480833
0.006273838
0.005742896
0.003215433
0.002062664
0.001447361
0.001078082
0.0008398699
0.0006799749
0.0005712578
0.0004977471
0.0004478367
0.0004115921
0.0003828817
0.0003658911
0.0003893331
0.000499327
0.0007649627
0.001322792
0.002541504
0.005516159
0.006242632
0.006586574
0.006844996
0.007162525
0.008224249
0.02166573
0.008074875
0.007066548
0.006681227
0.006480847
0.006283934
0.005782617
0.003325383
0.002132323
0.001488939
0.001104267
0.0008571426
0.0006920699
0.0005807187
0.0005065441
0.0004575668
0.0004235432
0.0003984157
0.0003870116
0.0004179404
0.0005356539
0.0008085546
0.001373342
0.002596871
0.005566261
0.006254739
0.006579081
0.006826827
0.007140738
0.0082022
0.02158561
0.008066502
0.007055645
0.006671302
0.006475693
0.006295886
0.005873613
0.003897323
0.002342564
0.001573321
0.001145597
0.0008803763
0.0007065433
0.0005910217
0.0005155538
0.0004673578
0.0004356986
0.00041456
0.000409466
0.00044854
0.0005744645
0.0008544281
0.001424755
0.002649144
0.005598798
0.006257424
0.006561457
0.006797335
0.007107514
0.0081687
0.02146291
0.00805157
0.007036007
0.006652364
0.006462053
0.006299228
0.005953739
0.004663168
0.002551368
0.001665478
0.001193632
0.0009074082
0.0007227165
0.0006017585
0.0005243333
0.0004766928
0.0004475064
0.0004307822
0.0004328012
0.0004806757
0.0006152923
0.0009021876
0.001476706
0.002698168
0.005619272
0.006248664
0.006530888
0.006753326
0.007059392
0.008119643
0.02127945
0.008026427
0.007003671
0.006621223
0.006437078
0.006290637
0.005994264
0.004831831
0.002689033
0.001752111
0.001245275
0.0009378616
0.0007407268
0.0006129613
0.0005327197
0.0004852565
0.0004585499
0.0004465999
0.0004565309
0.0005139389
0.0006580961
0.0009525672
0.001530701
0.002745108
0.00562885
0.006228113
0.006486495
0.006693199
0.006994207
0.008053616
0.02100994
0.007987111
0.006956914
0.006579407
0.006404924
0.006278837
0.006031777
0.00465971
0.002855452
0.00187047
0.001315887
0.0009784508
0.0007634874
0.0006258243
0.0005411355
0.0004931008
0.0004686557
0.0004616669
0.0004802576
0.0005482975
0.0007042495
0.001010189
0.001596428
0.002803466
0.00563604
0.006204218
0.006436051
0.006623451
0.006918224
0.007997814
0.0206296
0.007936608
0.006913124
0.006555215
0.006400379
0.006302614
0.006155811
0.005641277
0.003324625
0.002108805
0.001438905
0.001042113
0.0007960045
0.0006423705
0.0005504919
0.0005006428
0.0004778984
0.0004757551
0.0005036297
0.0005841911
0.0007574262
0.001087863
0.001706536
0.002933149
0.005685054
0.006219512
0.006420527
0.00658228
0.006862862
0.007957716
0.02009291
0.007929148
0.006987757
0.006692634
0.006578196
0.006514914
0.006430427
0.006148077
0.004942875
0.002644092
0.00165336
0.001137191
0.0008399539
0.0006631378
0.0005611821
0.0005080345
0.0004859522
0.0004879851
0.000525288
0.0006211779
0.0008219273
0.001208884
0.001948488
0.003383348
0.005963124
0.006443566
0.006603022
0.006728925
0.006979548
0.00807035
0.01945036
0.008338179
0.007762078
0.007623418
0.007579836
0.007561174
0.007536997
0.007420823
0.00679774
0.003232168
0.001867063
0.001226058
0.0008803182
0.0006821004
0.0005695737
0.0005108132
0.0004863296
0.0004898772
0.0005357887
0.0006496187
0.0008879135
0.001375017
0.002456282
0.005282164
0.007234508
0.007536031
0.007614881
0.007683346
0.007871184
0.008979379
0.02346786
0.007929304
0.006988048
0.006693065
0.006578689
0.006514998
0.006428704
0.006142944
0.004933784
0.002638935
0.001651101
0.001136536
0.0008398022
0.00066245
0.0005588646
0.0005030472
0.0004778386
0.0004782066
0.00051803
0.0006190841
0.0008268395
0.001227153
0.001990026
0.003441968
0.005980167
0.00644956
0.006605632
0.006730628
0.00698088
0.008071146
0.01945225
0.007247551
0.005588975
0.004912811
0.004598199
0.004404869
0.00420113
0.003841184
0.003068575
0.00209541
0.001453309
0.0010527
0.0008008883
0.0006438451
0.0005504459
0.0004999284
0.0004767703
0.0004753951
0.0005063767
0.0005899988
0.0007642626
0.001088892
0.001652128
0.002549918
0.003707222
0.004234301
0.00449601
0.004687722
0.004941307
0.005579619
0.008427329
0.007200871
0.005340355
0.004487188
0.004050304
0.003767677
0.003488002
0.003080707
0.002360599
0.001731278
0.001277755
0.0009676615
0.0007596196
0.0006237869
0.0005399064
0.0004923307
0.0004680415
0.0004620823
0.0004834142
0.0005517466
0.0006980256
0.0009657687
0.001413851
0.002106552
0.003022821
0.003534998
0.003830309
0.004054829
0.004322668
0.00490625
0.007439156
0.007249656
0.005354191
0.00443522
0.003935719
0.003592259
0.003239081
0.002713169
0.002063538
0.001544563
0.001170815
0.0009091732
0.0007288319
0.0006079038
0.000530859
0.0004848143
0.0004583801
0.0004470797
0.000458832
0.0005143303
0.0006418479
0.0008797894
0.00128283
0.001923208
0.002818184
0.003353387
0.003685299
0.003950355
0.00426478
0.004939763
0.008041619
0.007294773
0.00540494
0.004465184
0.003936241
0.003556179
0.003160176
0.002599243
0.001943162
0.001453729
0.001110792
0.0008724517
0.0007076091
0.0005958099
0.0005229189
0.0004771716
0.0004479839
0.0004310195
0.0004334451
0.0004781409
0.0005935794
0.0008175129
0.001206335
0.0018421
0.002762056
0.003337614
0.003709125
0.004011402
0.004363154
0.005106646
0.008683158
0.007324384
0.005444757
0.004498646
0.003954263
0.003548691
0.003116947
0.002499983
0.001857015
0.001391585
0.001069264
0.0008460951
0.0006914133
0.0005855846
0.0005151738
0.0004689627
0.0004367098
0.0004139264
0.0004072084
0.0004424199
0.0005495291
0.0007663981
0.001151126
0.001793094
0.002742905
0.00336037
0.003768312
0.004099887
0.004474967
0.005257504
0.009153968
0.007341732
0.005469274
0.004520384
0.003965883
0.003540821
0.003078786
0.002390595
0.001779466
0.001339496
0.001035486
0.0008246252
0.0006776614
0.0005761047
0.0005072281
0.0004601735
0.0004247385
0.0003960279
0.0003802417
0.0004068817
0.0005077451
0.0007201408
0.001102745
0.001750193
0.002723182
0.003378848
0.003818832
0.004173481
0.00456323
0.005366598
0.009476029
0.00735112
0.005482452
0.004531307
0.003968998
0.003527931
0.003041607
0.00230054
0.001713314
0.001297807
0.001009082
0.0008073641
0.0006658369
0.0005672047
0.0004992435
0.0004511877
0.0004125277
0.0003777131
0.0003528309
0.0003717578
0.0004678045
0.0006766325
0.001056502
0.001705766
0.002692476
0.003382161
0.003850664
0.004224567
0.004624831
0.005439939
0.009690043
0.00735576
0.005488533
0.004534981
0.003966195
0.003513387
0.003014643
0.002259045
0.001677298
0.001271154
0.0009899819
0.0007936106
0.000655615
0.0005589949
0.0004916301
0.0004425709
0.000400641
0.000359424
0.0003253891
0.0003375951
0.0004300253
0.000635641
0.001011664
0.001658669
0.00264746
0.003370442
0.003864963
0.004255738
0.00466461
0.00548702
0.009828156
0.00735778
0.005490621
0.004534289
0.003958683
0.003492905
0.002983223
0.002225272
0.001648753
0.00124938
0.0009739009
0.0007817281
0.000646577
0.0005516181
0.000484769
0.0004347813
0.0003895334
0.0003416444
0.0002986318
0.0003052128
0.0003949279
0.0005974266
0.0009688088
0.00161141
0.002598422
0.003348091
0.003865902
0.004271722
0.004688166
0.005515562
0.009913075
0.007358494
0.005490728
0.00453119
0.003947059
0.003462998
0.002930719
0.002179299
0.001615981
0.001227105
0.0009586583
0.0007709853
0.0006386152
0.0005451979
0.0004788146
0.0004279604
0.000379519
0.0003252162
0.0002740348
0.0002758467
0.000363034
0.0005619771
0.0009277315
0.001564652
0.002552778
0.003319077
0.003857681
0.004277064
0.004700322
0.005531351
0.009961133
0.00735861
0.005490027
0.004527361
0.003934197
0.00342746
0.002855064
0.002125061
0.001582367
0.001206113
0.0009450767
0.0007617679
0.0006319169
0.0005397958
0.0004737301
0.0004221131
0.0003711371
0.0003118041
0.0002540424
0.0002512049
0.0003349346
0.0005287937
0.0008859085
0.001511328
0.00249491
0.003281996
0.003843015
0.004275495
0.004704964
0.00553874
0.009984475
0.007358489
0.005489167
0.004524033
0.003923627
0.003397045
0.002778857
0.002077226
0.001554735
0.001189526
0.0009345863
0.0007546986
0.0006267164
0.0005354715
0.0004695696
0.0004175215
0.000365337
0.0003034238
0.0002413109
0.0002332695
0.0003116791
0.0004978302
0.0008401789
0.001438828
0.002397067
0.003229923
0.003823225
0.004269985
0.004705199
0.005541078
0.009992482
0.007358328
0.005488512
0.004522038
0.003918456
0.003384292
0.002734849
0.002053456
0.001540343
0.001180221
0.0009283087
0.000750209
0.0006231755
0.0005322943
0.0004664231
0.0004144309
0.0003627017
0.000301249
0.0002377205
0.0002240484
0.0002953516
0.0004721563
0.0007962656
0.001353214
0.002237948
0.003166408
0.003802531
0.004263468
0.004703476
0.005540862
0.009992418
0.007358265
0.005488258
0.004521302
0.003916694
0.003380644
0.002729094
0.002048026
0.001536027
0.001176987
0.0009258664
0.0007482271
0.0006213331
0.000530321
0.0004642575
0.0004125759
0.0003627337
0.0003048917
0.0002436142
0.0002248976
0.0002885081
0.0004574659
0.0007713014
0.001310631
0.002165573
0.003136295
0.00379047
0.00425877
0.004701619
0.005539889
0.009990119
0.007358361
0.005488481
0.004521764
0.003917608
0.00338359
0.002751743
0.002055098
0.001539206
0.001178794
0.0009268935
0.0007486854
0.0006212838
0.0005297388
0.0004632095
0.0004117033
0.0003642062
0.0003118081
0.0002563459
0.0002351951
0.0002919979
0.0004547611
0.0007638203
0.001299919
0.002165131
0.003127671
0.003786266
0.004256858
0.004700633
0.005539228
0.009988929
0.007358599
0.005489165
0.00452353
0.00392193
0.003391623
0.002748328
0.002065395
0.001548982
0.001185747
0.0009314848
0.0007516455
0.0006231375
0.0005307924
0.0004637297
0.0004123976
0.0003670634
0.0003198757
0.0002713151
0.0002512993
0.0003044255
0.0004636103
0.0007715008
0.001306946
0.002159552
0.003132709
0.003788705
0.004257519
0.00470047
0.005538822
0.009988531
0.007358897
0.005490191
0.00452656
0.003930028
0.003410746
0.002799839
0.002098427
0.001570197
0.00119922
0.0009400601
0.0007572335
0.0006269578
0.0005336157
0.0004661409
0.0004151964
0.000371812
0.0003289169
0.0002866503
0.0002701808
0.0003230988
0.0004826452
0.0007954978
0.001342444
0.00221601
0.003155834
0.003797714
0.004259967
0.004700183
0.005537605
0.009985408
0.007359147
0.00549136
0.004530578
0.003942166
0.003442936
0.002850887
0.002144012
0.001599884
0.001217878
0.0009519935
0.0007651698
0.0006326129
0.0005381395
0.0004704196
0.0004201359
0.0003786292
0.0003392734
0.0003023498
0.0002907232
0.000346443
0.0005107488
0.0008367553
0.001411836
0.002318137
0.003203349
0.003813172
0.004262629
0.004698108
0.005533802
0.009974142
0.007359157
0.00549232
0.004534861
0.003956106
0.00348328
0.002962413
0.002208763
0.001636671
0.00124012
0.000966286
0.000774919
0.0006398161
0.0005441611
0.0004763466
0.0004269629
0.0003873731
0.0003511606
0.0003189416
0.0003128453
0.0003733929
0.0005450589
0.000888117
0.001501796
0.002470526
0.003265299
0.003830177
0.004262733
0.004691978
0.005525094
0.009947906
0.007358576
0.005492395
0.00453781
0.003965917
0.003507272
0.003003271
0.002244773
0.001664117
0.00126021
0.0009808946
0.0007857116
0.0006482098
0.0005514137
0.0004836203
0.0004353248
0.000397768
0.0003646186
0.0003369039
0.0003367975
0.000403162
0.0005816712
0.0009351487
0.001563442
0.00254016
0.003302144
0.003839088
0.004256462
0.004678866
0.005508448
0.009897941
0.00735661
0.00549035
0.00453828
0.003972178
0.003523748
0.003027807
0.002272936
0.001689799
0.001281018
0.0009968942
0.0007978596
0.000657747
0.0005596568
0.0004918758
0.0004447893
0.0004094293
0.0003794978
0.0003564747
0.0003628405
0.0004357186
0.0006206326
0.000980736
0.001613849
0.002585287
0.003325586
0.003838349
0.004240197
0.004654978
0.005479613
0.009812374
0.007351913
0.005484143
0.004534341
0.003974409
0.003536991
0.003053434
0.002315819
0.001727287
0.001309249
0.001017278
0.0008124965
0.0006686556
0.0005686788
0.0005006842
0.0004548329
0.000421855
0.0003954609
0.0003776233
0.0003910577
0.0004711383
0.0006625057
0.001027775
0.001662158
0.002623493
0.003338652
0.003825193
0.004209616
0.004615518
0.005432802
0.009674938
0.007342377
0.00547068
0.004522986
0.003970714
0.0035494
0.003092481
0.002425213
0.001800185
0.001353911
0.001045425
0.0008307871
0.0006811497
0.0005782368
0.0005095677
0.0004648683
0.0004344505
0.0004120119
0.0004000675
0.0004212752
0.0005092974
0.0007074437
0.001077333
0.001711506
0.002663621
0.003339904
0.003795881
0.004159968
0.004554806
0.005360207
0.009462732
0.007324835
0.005445789
0.004500667
0.003958282
0.003556711
0.003131699
0.002535689
0.001881175
0.001407193
0.001079397
0.0008523135
0.0006950567
0.000588056
0.0005180941
0.0004743486
0.0004466222
0.0004285789
0.0004233487
0.00045313
0.0005499994
0.0007555734
0.001129716
0.001760713
0.002694957
0.003327622
0.00374887
0.004088434
0.00446785
0.005252206
0.009143239
0.007295008
0.005405558
0.004466563
0.003939308
0.003562855
0.003173139
0.002625481
0.001964899
0.001468619
0.001120319
0.0008782149
0.0007110462
0.0005983391
0.0005261377
0.0004829445
0.0004579198
0.0004446414
0.0004469726
0.0004863068
0.0005935362
0.000808534
0.001188631
0.001815702
0.002724651
0.003311414
0.003693584
0.004002292
0.004357545
0.005102656
0.008675318
0.007249688
0.005354422
0.004436023
0.003938137
0.003599273
0.003257143
0.002761736
0.002095603
0.001562441
0.001180639
0.0009145612
0.0007319174
0.000610291
0.000534147
0.0004907207
0.000468167
0.0004598446
0.0004705534
0.0005208347
0.0006414716
0.0008716791
0.001266672
0.00190002
0.002788529
0.003332875
0.003673372
0.003943464
0.004260578
0.004936888
0.008036427
0.007200768
0.005340313
0.004487483
0.004051594
0.003771633
0.003497975
0.003100444
0.00237769
0.001743106
0.001284887
0.0009716475
0.0007619286
0.0006257886
0.0005430608
0.0004981555
0.0004774984
0.0004740212
0.000493808
0.0005570854
0.0006969145
0.0009561361
0.001393933
0.00207938
0.002996269
0.003518247
0.003821241
0.004049799
0.004319631
0.004904203
0.007436005
0.00724739
0.005588769
0.004912716
0.004598584
0.004406739
0.004206399
0.003849735
0.003060322
0.0021003
0.001457466
0.001055002
0.0008021901
0.0006452964
0.0005533266
0.000505502
0.0004857112
0.0004864077
0.0005155302
0.0005942437
0.0007616975
0.001074879
0.00162119
0.002507413
0.003678856
0.004220406
0.004489714
0.004684547
0.004939431
0.005578399
0.008425596
0.007929148
0.00698776
0.006692637
0.006578182
0.006514792
0.006429472
0.006127548
0.00445966
0.002606228
0.001650388
0.001137296
0.000840261
0.0006633926
0.0005613939
0.000508264
0.000486296
0.00048855
0.0005261306
0.0006221757
0.0008228989
0.001209707
0.001949045
0.003383595
0.005963085
0.006444275
0.006603971
0.006729882
0.00698039
0.008070972
0.01945203
0.007936784
0.006913441
0.006555668
0.006400769
0.006301975
0.00615293
0.005655921
0.003310887
0.002097474
0.001432795
0.001039332
0.000794744
0.0006411691
0.0005479768
0.0004955328
0.0004696157
0.0004658811
0.0004965364
0.0005826093
0.0007609059
0.001097373
0.001724228
0.002956253
0.005699617
0.00622868
0.006426447
0.006586598
0.00686612
0.007959707
0.02009724
0.007200866
0.005340359
0.004487221
0.004050405
0.003768
0.003489506
0.003087898
0.002363839
0.001732624
0.001278507
0.0009681837
0.0007599888
0.000624018
0.0005400126
0.0004923699
0.0004681942
0.0004626413
0.0004846661
0.0005533834
0.0006991691
0.0009655684
0.001411964
0.002104021
0.003022366
0.003536596
0.003832834
0.004057548
0.004325298
0.004908908
0.007443807
0.007133972
0.00501931
0.003922541
0.003312857
0.002920441
0.002598373
0.002263229
0.001848662
0.001454695
0.001135288
0.0008956335
0.0007237993
0.0006059884
0.000530002
0.000484395
0.0004585422
0.000448293
0.0004609955
0.0005144536
0.0006317859
0.0008392332
0.001161223
0.001603237
0.002107382
0.002501238
0.002773036
0.002976444
0.003165466
0.003430969
0.004239667
0.007177853
0.005013169
0.003821423
0.003124227
0.002665687
0.002306469
0.001967861
0.001619957
0.001304834
0.001045831
0.0008454692
0.0006970852
0.0005920311
0.0005216349
0.0004767583
0.0004483044
0.0004326776
0.0004361074
0.0004764609
0.0005733805
0.0007458401
0.001008829
0.00136316
0.001770492
0.002123609
0.002389549
0.002597746
0.002788105
0.00304061
0.00379363
0.007221921
0.005060092
0.003836927
0.003100083
0.002603879
0.00221685
0.001863165
0.00152442
0.001231974
0.000996426
0.0008147201
0.0006791338
0.0005815853
0.0005143065
0.0004690505
0.0004374711
0.0004161694
0.000410525
0.0004397951
0.0005231656
0.0006776205
0.0009174841
0.001248284
0.001644013
0.002007031
0.002295552
0.002533941
0.002764638
0.003091715
0.004080343
0.007251096
0.005099378
0.003866408
0.003111411
0.002593345
0.002186683
0.001815513
0.001475568
0.001191254
0.0009664612
0.0007944429
0.0006660274
0.000572782
0.0005070199
0.0004607315
0.0004257793
0.0003986064
0.0003839713
0.0004036424
0.0004779713
0.0006235977
0.0008559704
0.001185523
0.001593667
0.001984905
0.00230624
0.002578791
0.002847952
0.003238745
0.004447282
0.007268003
0.005123578
0.003886851
0.003122142
0.002590137
0.002170059
0.001783786
0.001442105
0.001162729
0.0009447665
0.0007789204
0.0006550428
0.0005644378
0.0004993815
0.0004518281
0.0004134333
0.0003801514
0.0003564294
0.000367631
0.0004357636
0.000576897
0.0008072225
0.00114095
0.001564649
0.001986181
0.002339328
0.002640822
0.002937153
0.003367813
0.004735653
0.007276905
0.005136278
0.003897185
0.003126148
0.002584258
0.002155586
0.001758006
0.00141609
0.001140946
0.0009278251
0.0007660861
0.0006451854
0.0005563036
0.0004916273
0.0004428577
0.000400986
0.0003611516
0.0003280596
0.0003318973
0.0003958628
0.0005344395
0.0007638132
0.001100903
0.001535694
0.001984426
0.002365221
0.002689902
0.003004889
0.003459393
0.004935355
0.007281039
0.005141786
0.003900555
0.003124765
0.002576087
0.002142258
0.001739701
0.001397239
0.001124232
0.000914017
0.0007549838
0.0006361773
0.0005486067
0.0004843137
0.0004345527
0.000389087
0.00034195
0.000299141
0.0002969271
0.0003583611
0.0004952567
0.0007234382
0.001062229
0.001505478
0.001973412
0.002377326
0.002720873
0.003049477
0.003518757
0.005065432
0.00728253
0.005143255
0.003899825
0.003119793
0.002566088
0.002127117
0.001722074
0.001380136
0.001109325
0.0009017071
0.0007450105
0.0006280249
0.0005416847
0.0004779243
0.0004274303
0.0003781347
0.0003228473
0.0002703539
0.000263582
0.0003236286
0.0004590693
0.0006854013
0.001024119
0.001472507
0.001953922
0.002377134
0.002736387
0.003075584
0.003554427
0.005145
0.007282695
0.005142721
0.003896987
0.003112507
0.002553203
0.002107323
0.001701439
0.001362166
0.001094852
0.0008903561
0.0007360945
0.0006208731
0.0005357092
0.0004724912
0.0004213462
0.0003681308
0.0003046445
0.0002435233
0.0002333245
0.0002921704
0.0004257436
0.0006493877
0.0009865687
0.001437999
0.001928596
0.002368089
0.002740664
0.003088431
0.003573617
0.005189056
0.007282303
0.005141428
0.003893573
0.00310491
0.002539949
0.002085854
0.001680696
0.001345296
0.00108193
0.0008805742
0.000728571
0.0006148684
0.0005306135
0.0004676717
0.0004158076
0.0003594071
0.0002896427
0.0002219243
0.0002081969
0.0002647044
0.0003952584
0.0006148006
0.0009481022
0.001399822
0.001898631
0.002353202
0.002737616
0.003092499
0.003581912
0.005209107
0.007281782
0.005140103
0.003890604
0.003098718
0.002529274
0.002067867
0.001663962
0.001332078
0.001072001
0.0008731214
0.0007227965
0.0006101174
0.0005263611
0.0004634625
0.0004111702
0.0003533993
0.0002807387
0.0002088254
0.0001903769
0.0002424512
0.0003683138
0.0005816983
0.0009071709
0.001354494
0.001864087
0.002335023
0.002730587
0.003091466
0.003583657
0.005214243
0.007281376
0.00513916
0.003888711
0.003095157
0.002523547
0.002058522
0.001655044
0.001324616
0.001066103
0.000868484
0.0007189886
0.0006067103
0.0005230057
0.000460022
0.0004079169
0.0003510658
0.0002794768
0.0002063568
0.0001820094
0.0002274839
0.0003472851
0.0005535961
0.0008690835
0.001307443
0.001830521
0.002317604
0.00272282
0.003088361
0.003582265
0.00521188
0.007281221
0.005138797
0.003887992
0.003093849
0.002521596
0.002055856
0.001652208
0.001322025
0.001063888
0.0008665663
0.0007171703
0.0006047251
0.0005206032
0.0004572162
0.0004054943
0.0003515545
0.0002852946
0.000214942
0.0001845706
0.0002221466
0.0003355591
0.0005366323
0.0008467512
0.00128159
0.001810775
0.00230636
0.002717182
0.003085526
0.003580363
0.005208277
0.007281371
0.005139091
0.003888467
0.003094604
0.002522825
0.002058249
0.001654146
0.001323562
0.00106501
0.0008672591
0.0007173954
0.0006043601
0.0005194453
0.0004551728
0.0004032476
0.000352571
0.000294219
0.0002311672
0.0001972569
0.0002273939
0.0003348001
0.0005321742
0.0008398992
0.001273995
0.00180394
0.002302282
0.002714985
0.003084286
0.003579522
0.005207319
0.007281815
0.005140024
0.003890168
0.003097651
0.002527283
0.002063937
0.001660645
0.001329332
0.001069537
0.0008705967
0.00071973
0.000605811
0.0005199928
0.000454796
0.0004025772
0.0003545068
0.0003031722
0.0002486852
0.000215694
0.0002415648
0.0003447589
0.0005400945
0.0008471905
0.001280322
0.001808959
0.002305083
0.002716168
0.003084589
0.003579618
0.005208469
0.00728247
0.005141474
0.003893004
0.003103036
0.002535942
0.002077413
0.001673868
0.001340256
0.001077835
0.0008767006
0.0007242165
0.000609151
0.0005224972
0.0004567383
0.000404653
0.0003587066
0.0003125547
0.0002653486
0.0002360297
0.0002611019
0.0003629433
0.0005589684
0.0008685915
0.001303024
0.001825612
0.002313994
0.002719656
0.003085188
0.00357909
0.00520779
0.007283194
0.005143199
0.003896651
0.003110401
0.002548189
0.002096254
0.001692444
0.001355388
0.001089319
0.000885257
0.000730684
0.0006142678
0.0005268716
0.0004609384
0.0004094554
0.0003654557
0.0003231687
0.0002816349
0.0002571678
0.0002841392
0.0003875218
0.0005875544
0.0009041923
0.001343234
0.001854195
0.002327585
0.002723492
0.003083974
0.003575437
0.005199463
0.007283743