/*--------------------------------*- C++ -*----------------------------------*\
| =========                 |                                                 |
| \\      /  F ield         | OpenFOAM: The Open Source CFD Toolbox           |
|  \\    /   O peration     | Version:  2506                                  |
|   \\  /    A nd           | Website:  www.openfoam.com                      |
|    \\/     M anipulation  |                                                 |
\*---------------------------------------------------------------------------*/
FoamFile
{
    version     2.0;
    format      ascii;
    arch        "LSB;label=32;scalar=64";
    class       surfaceScalarField;
    location    "250/airRegion";
    object      phi;
}
// * * * * * * * * * * * * * * * * * * * * * * * * * * * * * * * * * * * * * //

dimensions      [1 0 -1 0 0 0 0];

oriented        oriented;

internalField   nonuniform List<scalar> 
257196
(
0.01085844
0.0007345958
0.0007345012
0.01058413
0.00108728
0.001087048
0.01026606
0.001138858
0.001138589
0.01003765
0.001126366
0.001126616
0.01009295
0.001182406
0.001184709
0.01077888
0.001379286
0.001387934
0.01319459
0.001283394
0.001307033
0.02194613
-0.002661506
-0.002590467
0.03613163
-0.008017223
-0.007869736
0.04609412
-0.01228306
-0.01207315
0.05175764
-0.01883035
-0.01855656
0.05329846
-0.02722787
-0.02687792
0.05047038
-0.03722475
-0.03676815
0.04312976
-0.0482645
-0.04764458
0.03153821
-0.05909115
-0.05823093
0.01658694
-0.06762236
-0.06646258
-0.0001031293
-0.07105383
-0.06962274
-0.01525352
-0.06618318
-0.06465887
-0.02575317
-0.05411076
-0.05273722
-0.0301623
-0.03877051
-0.0376924
-0.02808982
-0.02417347
-0.02346056
-0.02011669
-0.01288973
-0.0127113
-0.0125813
-0.00373208
-0.003539388
-0.009386484
0.001339823
0.001587714
-0.008315203
0.002791013
0.00284546
-0.007901453
0.003716279
0.003730569
-0.00755922
0.004653523
0.004653338
-0.006798052
0.005586546
0.005581768
-0.004701838
0.005888527
0.005882868
0.0004493392
0.0004432527
0.01965735
0.0006525522
0.002274856
0.01949931
0.001065328
0.003358301
0.01928442
0.001170469
0.003439745
0.01922719
0.001164222
0.003113238
0.01966728
0.001178103
0.002511774
0.02132679
0.00124339
0.001289336
0.02592575
0.0002921141
-0.001822454
0.03434606
-0.004672542
-0.006136376
0.04358363
-0.01048631
-0.009875987
0.05099212
-0.01491843
-0.01453525
0.05515581
-0.02036662
-0.02144774
0.0556407
-0.02723058
-0.03022361
0.05205652
-0.03543302
-0.04053604
0.04419471
-0.04453777
-0.05173023
0.03227726
-0.05352038
-0.06251993
0.01715342
-0.06061234
-0.070872
0.0004109819
-0.06338128
-0.07409636
-0.01493646
-0.05913357
-0.06908159
-0.02605551
-0.04884199
-0.05682375
-0.03160539
-0.03585534
-0.04113816
-0.03162665
-0.02340429
-0.02590714
-0.02753088
-0.0131768
-0.01369342
-0.02106642
-0.004884644
-0.005391729
-0.01675799
0.0003380379
0.001153525
-0.01469394
0.002172971
0.006668623
-0.01356649
0.003359607
0.01021797
-0.01245411
0.004354947
0.01336898
-0.0104502
0.00514844
0.01701549
-0.005490339
0.005127625
0.02187005
0.0002019843
0.0291937
0.0236246
0.0004978931
0.003614905
0.02362873
0.0008842782
0.005458
0.02366545
0.001027693
0.005591398
0.02399698
0.001067031
0.004883033
0.02510609
0.001142006
0.003420798
0.02787505
0.001277582
0.0006782354
0.03460858
-0.0007282622
-0.005244182
0.04456783
-0.00604059
-0.009309258
0.05207005
-0.01095119
-0.01188252
0.05726879
-0.01536856
-0.01738042
0.05970344
-0.0202765
-0.02503484
0.05886106
-0.02614652
-0.03447417
0.05429178
-0.03303036
-0.04532879
0.04575611
-0.04062743
-0.05690121
0.03342414
-0.04812418
-0.06791495
0.01806909
-0.05403893
-0.07638614
0.00116925
-0.05626715
-0.07965663
-0.01447056
-0.05250456
-0.07458326
-0.02620495
-0.04356625
-0.06197442
-0.03275193
-0.0323477
-0.04562098
-0.03405783
-0.02151906
-0.02938474
-0.03085355
-0.01242212
-0.01602354
-0.02425453
-0.005160722
-0.007021733
-0.01935902
-0.0001869081
0.001690751
-0.01671522
0.001714158
0.01042629
-0.01492039
0.002930661
0.01665801
-0.01296101
0.003870072
0.02234485
-0.009811933
0.004500974
0.02894664
-0.003178037
0.00436614
0.03758122
0.0009809838
0.04974801
0.02550504
0.0003447165
0.004638992
0.02558344
0.0006542439
0.007168046
0.02583761
0.000797328
0.007386868
0.02664
0.0008478557
0.006310257
0.02872654
0.0009192653
0.003927083
0.03327725
0.001021349
-0.0004815361
0.04165543
-0.001787113
-0.007335916
0.05163964
-0.006525873
-0.01147322
0.05853101
-0.01061963
-0.01444663
0.06259799
-0.01467478
-0.02057393
0.06388369
-0.01914039
-0.02888451
0.06200883
-0.02427695
-0.03891027
0.05660027
-0.03016374
-0.05022636
0.04745566
-0.03659003
-0.06210049
0.03473359
-0.04291109
-0.07328183
0.01914911
-0.04788676
-0.08184537
0.002084011
-0.04968562
-0.08516207
-0.01382122
-0.04630334
-0.08006522
-0.02600399
-0.03843075
-0.06718456
-0.03313608
-0.02863913
-0.05030074
-0.03498737
-0.01920053
-0.03318469
-0.03194731
-0.01126525
-0.01863779
-0.02507981
-0.004994586
-0.008249325
-0.01974305
-0.0004562671
0.002571807
-0.01666785
0.001333099
0.01395909
-0.01437864
0.002446131
0.02261807
-0.01189246
0.003254781
0.03063747
-0.008294101
0.003724105
0.03959358
-0.001318367
0.003533888
0.05038377
0.001081852
0.06347634
0.02642217
0.000223707
0.005350108
0.02650804
0.0004482353
0.00841794
0.02688522
0.0005703958
0.008728094
0.02799681
0.0006279182
0.007353536
0.03087542
0.0006670344
0.00418741
0.03732723
0.0005225497
-0.002096554
0.04721243
-0.002121938
-0.009144366
0.05637079
-0.006377851
-0.01292023
0.06287163
-0.009992218
-0.01714151
0.066492
-0.01359332
-0.02392648
0.06714947
-0.01753318
-0.0327673
0.06461187
-0.02200289
-0.04324885
0.05861791
-0.02705231
-0.05488705
0.04903054
-0.03251501
-0.06693778
0.03601818
-0.03787204
-0.07819708
0.02025289
-0.04207825
-0.08680812
0.003045719
-0.04352947
-0.09016579
-0.01306129
-0.04047185
-0.08508247
-0.02550724
-0.0335225
-0.07203578
-0.03289782
-0.02500458
-0.05480933
-0.03490095
-0.01685727
-0.03701173
-0.03180936
-0.01004876
-0.02135982
-0.02473507
-0.004689635
-0.009451453
-0.01914331
-0.0006159048
0.003311628
-0.01578058
0.0009797928
0.01688322
-0.01319591
0.001934425
0.02761372
-0.01048407
0.002592012
0.03753835
-0.006852702
0.002929019
0.04813873
-2.469678e-05
0.002721895
0.0600258
0.0009265412
0.07277476
0.02688318
0.000138209
0.005809206
0.02695947
0.0002889393
0.009254181
0.02742136
0.0003801829
0.009630448
0.02879692
0.0004256702
0.007996881
0.03227176
0.0003986993
0.004148981
0.03981767
4.777901e-05
-0.003584651
0.05069767
-0.002218878
-0.01073869
0.05970454
-0.005835998
-0.01437877
0.06597437
-0.009142881
-0.01958585
0.06927026
-0.01229342
-0.02707128
0.06951279
-0.01570219
-0.03645185
0.06654259
-0.01955368
-0.04731708
0.06017213
-0.02386618
-0.05917353
0.05031195
-0.02850005
-0.0713012
0.03713237
-0.03303397
-0.08256661
0.02126284
-0.03658469
-0.09118746
0.003961931
-0.03774551
-0.09457334
-0.01227054
-0.03499124
-0.08951702
-0.02482708
-0.02891273
-0.07639092
-0.03226787
-0.02160952
-0.05899985
-0.03424513
-0.01469767
-0.04074431
-0.03107016
-0.008947123
-0.02418225
-0.02390683
-0.004387907
-0.01089706
-0.01822188
-0.0007345106
0.003575392
-0.01469195
0.0006461131
0.01893517
-0.01196233
0.001434829
0.03138576
-0.009206764
0.001953859
0.04280768
-0.005711649
0.002195519
0.0545411
0.0008300585
0.002011768
0.06700774
0.0007239761
0.07907037
0.02712203
8.188272e-05
0.006086347
0.02719054
0.0001770203
0.0097672
0.027712
0.0002393504
0.01016912
0.02926057
0.0002765138
0.008305026
0.032929
0.0002985054
0.003910205
0.04048684
4.46823e-05
-0.004503215
0.05186626
-0.002614572
-0.01209936
0.06170674
-0.005910733
-0.01637905
0.0680434
-0.008341317
-0.0219163
0.0711199
-0.01088666
-0.02998014
0.0710746
-0.01378358
-0.03985522
0.06782205
-0.01706861
-0.05103888
0.06123074
-0.02072218
-0.06303785
0.05123772
-0.02462226
-0.07517477
0.03800128
-0.02842877
-0.08640295
0.02210033
-0.031399
-0.09501283
0.004750688
-0.0323092
-0.09840967
-0.01154331
-0.02986052
-0.09336431
-0.02409873
-0.02465204
-0.08021919
-0.03146613
-0.01854153
-0.06282254
-0.03334865
-0.01281018
-0.04433559
-0.03012329
-0.008023354
-0.02711029
-0.02297518
-0.004138406
-0.01269719
-0.01731381
-0.0008314286
0.003231585
-0.0136961
0.0003451245
0.02005502
-0.0109089
0.0009838327
0.03393147
-0.008193287
0.001388886
0.0465386
-0.004881491
0.00156799
0.05909118
0.001383495
0.001424855
0.07190416
0.0005368187
0.08334507
0.0272494
4.740786e-05
0.006241004
0.02731775
0.0001053041
0.01004933
0.02789537
0.0001448308
0.01043798
0.02963332
0.0001593702
0.008363004
0.03382417
0.0001038999
0.003420311
0.04243811
-0.0003818945
-0.006286297
0.05465874
-0.002560256
-0.01355701
0.06368889
-0.005053437
-0.01732901
0.06946946
-0.007198156
-0.0239742
0.07223582
-0.009406806
-0.03271649
0.07196334
-0.01187857
-0.04299947
0.06853811
-0.01464907
-0.0544061
0.06184198
-0.01769849
-0.06647376
0.05182121
-0.02092894
-0.07857459
0.03860955
-0.02406966
-0.08974824
0.02272663
-0.02650513
-0.09834329
0.005351669
-0.02719366
-0.1017313
-0.01096166
-0.02507469
-0.09665978
-0.02343958
-0.02076487
-0.08353992
-0.03066399
-0.01583175
-0.06627478
-0.03243347
-0.01121102
-0.04776011
-0.02919901
-0.007279636
-0.0301138
-0.02212848
-0.00394933
-0.01483716
-0.01656953
-0.0009060745
0.002324009
-0.01290255
9.240391e-05
0.02034042
-0.0100959
0.0006058288
0.03541328
-0.007443521
0.0009219052
0.0489808
-0.004304126
0.001061823
0.06216508
0.001712889
0.0009698291
0.07523011
0.0003709862
0.0861994
0.02732167
2.895236e-05
0.006318706
0.02739351
6.907626e-05
0.01018094
0.02800361
0.0001072055
0.01052725
0.02981754
0.0001396312
0.008269912
0.03411216
0.0001013255
0.002961242
0.04283234
-0.0005747068
-0.007355259
0.0552808
-0.002575142
-0.01495506
0.06440371
-0.004474772
-0.01900085
0.07010166
-0.0062195
-0.02613367
0.0727563
-0.00804825
-0.03526952
0.07236707
-0.01008129
-0.04582279
0.06884983
-0.01234566
-0.05737472
0.06211824
-0.01482119
-0.0694672
0.05212854
-0.01742378
-0.08151672
0.03898529
-0.01993745
-0.09264443
0.02314084
-0.02186444
-0.1012354
0.005742888
-0.02235876
-0.1045961
-0.01056498
-0.02061791
-0.09946104
-0.02291853
-0.01724876
-0.08641095
-0.0299708
-0.01346452
-0.06938951
-0.0316355
-0.009866796
-0.05100211
-0.02842392
-0.006683026
-0.03312861
-0.02144345
-0.003818939
-0.01721899
-0.01604257
-0.001003512
0.001060788
-0.01233052
-0.0001050719
0.01997724
-0.009512342
0.0003126158
0.03606438
-0.006915642
0.0005594816
0.05042541
-0.003911813
0.0006727993
0.06412017
0.001931976
0.0006240478
0.07739161
0.0002401151
0.08805494
0.02737429
2.060741e-05
0.00635195
0.02746536
5.676291e-05
0.01022425
0.02812645
0.0001122924
0.01050842
0.03002674
0.0002076812
0.008066277
0.03440676
0.0002929944
0.002456336
0.04321334
-0.0006184201
-0.008230969
0.05575077
-0.002658732
-0.01613959
0.06488929
-0.0040824
-0.02050557
0.07051187
-0.005374641
-0.02800322
0.07304594
-0.006775494
-0.03744704
0.07253781
-0.008359375
-0.04822095
0.06893815
-0.01013092
-0.05989028
0.06218577
-0.01206169
-0.07199982
0.05224232
-0.01407205
-0.08400969
0.03917868
-0.01598718
-0.09511582
0.02337646
-0.01742587
-0.1037182
0.005954864
-0.01776157
-0.1070411
-0.01033085
-0.01646583
-0.1018391
-0.02254543
-0.0140681
-0.08892564
-0.02943863
-0.0113751
-0.07223036
-0.03103104
-0.008700224
-0.05405517
-0.02786881
-0.00617335
-0.03606959
-0.02100267
-0.003718572
-0.0196817
-0.0157016
-0.00110353
-0.0005836099
-0.01195541
-0.0002302713
0.01918824
-0.009121939
0.0001100892
0.03612724
-0.006562566
0.0002983647
0.05114725
-0.003654934
0.0003893755
0.06526307
0.002070603
0.0003713437
0.07871505
0.0001426943
0.08920275
0.02742899
1.579811e-05
0.006362604
0.02756929
4.954639e-05
0.01022385
0.02835748
0.000116002
0.01043437
0.0305068
0.0002807026
0.007771103
0.03522282
0.000582244
0.001847724
0.04434916
-0.0006851633
-0.008907033
0.05677955
-0.002702791
-0.01688117
0.06564334
-0.003594093
-0.0215604
0.07100256
-0.00444835
-0.02941557
0.07331855
-0.00545997
-0.0391557
0.07264059
-0.006629408
-0.05013747
0.06893337
-0.007944857
-0.06192115
0.06214569
-0.009368908
-0.07405839
0.05223859
-0.01082439
-0.08604875
0.03925142
-0.01217141
-0.09714971
0.02349973
-0.01314893
-0.1057668
0.006072916
-0.01337159
-0.1090646
-0.01017859
-0.01258047
-0.1038701
-0.02228274
-0.01114245
-0.09119488
-0.02908022
-0.009445668
-0.07486993
-0.03066191
-0.007591869
-0.05691019
-0.02757658
-0.005666479
-0.03883787
-0.02085504
-0.003600528
-0.02204616
-0.01551482
-0.001102034
-0.002587176
-0.01174679
-0.000253463
0.01818926
-0.008887535
2.422328e-06
0.03582277
-0.006343853
0.0001307063
0.05138305
-0.003496887
0.0001974752
0.06584353
0.00215238
0.0001967415
0.07945292
7.450674e-05
0.08985525
0.02748104
1.098384e-05
0.006362707
0.02768476
3.611932e-05
0.0102043
0.02864763
8.646153e-05
0.01034089
0.03127434
0.0002343412
0.007423033
0.03687822
0.000619462
0.001032498
0.04661169
-0.0009230526
-0.009417608
0.05826047
-0.00227431
-0.01690011
0.06652494
-0.002775487
-0.0222085
0.07151578
-0.003336765
-0.03043179
0.07357668
-0.004041784
-0.04042535
0.0727176
-0.004851603
-0.05158193
0.06889671
-0.005754708
-0.06346407
0.06206586
-0.006712335
-0.07562902
0.05218526
-0.00765285
-0.08760177
0.03927344
-0.008470557
-0.09868331
0.02359603
-0.009025406
-0.1073017
0.0062061
-0.009173836
-0.1106344
-0.010011
-0.008901388
-0.1056157
-0.02208155
-0.008349129
-0.09329988
-0.02889709
-0.007515875
-0.07734375
-0.0305676
-0.006380783
-0.05952542
-0.02760977
-0.00503918
-0.04130507
-0.02095382
-0.003456033
-0.02413905
-0.01553725
-0.001103716
-0.004271036
-0.01169732
-0.0001575636
0.01713685
-0.008783797
-1.821849e-05
0.0353316
-0.006229308
4.270406e-05
0.05132596
-0.003411063
8.097994e-05
0.06605976
0.00219433
8.609314e-05
0.07979989
3.088263e-05
0.09017351
0.02752081
5.818626e-06
0.006358933
0.02777415
1.814778e-05
0.01018146
0.02886227
3.938616e-05
0.01026275
0.0319913
2.814458e-05
0.007126682
0.03924439
-0.0001886111
-0.0001832648
0.04970873
-1.427144e-05
-0.0100089
0.05964726
-0.0007752481
-0.0163572
0.06719245
-0.001578616
-0.02259797
0.07190616
-0.002097077
-0.03114766
0.07376829
-0.002547422
-0.04130652
0.07276717
-0.003041399
-0.05258269
0.06885719
-0.003570473
-0.06452649
0.0619942
-0.004098754
-0.0766974
0.05214226
-0.004562705
-0.08863538
0.03931304
-0.004890856
-0.09967117
0.02374248
-0.005058663
-0.1082797
0.006438705
-0.00514906
-0.1117255
-0.009761717
-0.005353067
-0.1070774
-0.02190823
-0.00555935
-0.09522883
-0.02889085
-0.005422911
-0.07960336
-0.03080557
-0.004875312
-0.06180064
-0.02814071
-0.004077243
-0.04329512
-0.02165391
-0.003149211
-0.02565045
-0.01595338
-0.001261385
-0.005474804
-0.01186863
9.413749e-05
0.01608494
-0.008812985
1.694842e-05
0.03477871
-0.006199049
3.333195e-06
0.05112596
-0.003378007
1.895703e-05
0.06606791
0.002209399
2.437128e-05
0.07990855
6.802831e-06
0.09028412
0.02754042
2.18718e-06
0.006354888
0.02780963
6.68896e-06
0.01016365
0.02892157
1.34915e-05
0.01020855
0.03180743
2.23912e-05
0.0070433
0.03773211
1.251206e-05
0.0002808399
0.04777264
-0.0001486938
-0.01015221
0.05944499
-0.0004511568
-0.0174776
0.06740805
-0.0006756061
-0.02305068
0.07207124
-0.0008664991
-0.03159416
0.07385391
-0.001054689
-0.04184307
0.07278155
-0.001246145
-0.05316771
0.06882716
-0.001425931
-0.06512346
0.06195756
-0.001556618
-0.07726811
0.05214723
-0.001579926
-0.08914457
0.03941607
-0.001454098
-0.100103
0.02399314
-0.001259496
-0.1086881
0.006835199
-0.001280223
-0.112314
-0.009360742
-0.001869739
-0.1082072
-0.02168196
-0.002685993
-0.09690369
-0.02895276
-0.00308243
-0.08156219
-0.0312318
-0.002980023
-0.06367855
-0.02920735
-0.002502566
-0.04474045
-0.02399848
-0.001689426
-0.02610755
-0.01768879
-0.0005148207
-0.006458332
-0.01236184
-0.0002081526
0.01475956
-0.008925253
-5.036433e-05
0.0342438
-0.006218899
-1.867432e-05
0.05089813
-0.003375628
-8.501587e-06
0.06598509
0.002209488
-2.489428e-06
0.07989542
-2.446947e-06
0.09028357
0.02754725
-5.730753e-07
0.006353361
0.02782198
-1.686125e-06
0.01015698
0.0289437
-3.796189e-06
0.01018931
0.03183857
4.295048e-05
0.006996841
0.03774407
0.000287489
0.0001954218
0.04781018
-0.0003080076
-0.01026167
0.0595121
-0.0002008271
-0.01760569
0.06747185
0.0001856518
-0.0232049
0.07211337
0.0003377118
-0.03176854
0.07386919
0.0004111401
-0.04202826
0.07277419
0.0005095009
-0.05334878
0.06880891
0.0006572419
-0.06528131
0.06194989
0.0008938255
-0.0773775
0.05218971
0.001271797
-0.08916997
0.03957865
0.001806048
-0.1000125
0.02437009
0.002330329
-0.1085408
0.007458101
0.002408885
-0.1123811
-0.008709924
0.001576675
-0.1089372
-0.0212684
0.0003029845
-0.09822006
-0.02886102
-0.0005353428
-0.08312539
-0.03140033
-0.0008447569
-0.0651449
-0.02937368
-0.000822516
-0.04593697
-0.02337427
-0.0007299812
-0.02728253
-0.01717767
-0.0004652297
-0.007033082
-0.01236136
9.759891e-05
0.01448492
-0.00897622
5.518956e-06
0.03394572
-0.006234557
-1.40079e-05
0.05072628
-0.003379666
-1.280872e-05
0.06589743
0.002206373
-9.577541e-06
0.0798496
-2.946331e-06
0.09025243
0.02754435
-3.881062e-06
0.006355534
0.02781918
-1.334854e-05
0.01016341
0.02894696
-3.106191e-05
0.01020531
0.03212976
-0.0001114862
0.006978731
0.03940115
-0.0003746561
-0.000463368
0.04995195
0.0006218095
-0.01036229
0.05996165
0.001176744
-0.01672041
0.06746314
0.001294474
-0.02302326
0.07207329
0.001539601
-0.03165588
0.07383091
0.001852255
-0.04186687
0.07274575
0.002221539
-0.05314896
0.06878968
0.002677654
-0.06504136
0.06194472
0.003256204
-0.07708567
0.05222623
0.003997279
-0.08878856
0.03973338
0.004885091
-0.09948315
0.02477255
0.005691198
-0.1079036
0.008186375
0.005895324
-0.1119356
-0.007885251
0.004975355
-0.1091733
-0.02067922
0.003389487
-0.09904838
-0.02862204
0.002149053
-0.08414201
-0.03143561
0.001414362
-0.06604555
-0.02969618
0.001026485
-0.0465564
-0.0244558
0.0008176526
-0.02736702
-0.01801859
0.0005263469
-0.00742225
-0.01253998
-5.025193e-05
0.01404716
-0.009006272
-4.394744e-06
0.03381746
-0.006247699
-7.397019e-06
0.05066222
-0.00338448
-1.761936e-05
0.06585721
0.002204719
-1.740885e-05
0.07982383
-4.048297e-06
0.09023745
0.0275292
-7.873142e-06
0.006361184
0.02778643
-2.668786e-05
0.01018301
0.02888171
-6.549422e-05
0.01025121
0.03173816
-0.0001019056
0.007136163
0.03752974
3.490189e-05
0.0003800795
0.04761359
0.0001345798
-0.009901462
0.05924145
0.001256539
-0.01722976
0.06719629
0.002132158
-0.02282395
0.07189308
0.002702642
-0.03126017
0.07371969
0.003247661
-0.04139756
0.07268421
0.00388623
-0.05261059
0.06875819
0.004646296
-0.06445234
0.06192722
0.005557704
-0.07645431
0.05222796
0.006641115
-0.08808543
0.03981033
0.007844391
-0.09863944
0.02504475
0.00889518
-0.1069292
0.008756549
0.009238786
-0.1110839
-0.007167467
0.008329817
-0.1088692
-0.02010729
0.006522017
-0.09925046
-0.02832683
0.004871187
-0.08448276
-0.03134365
0.00365855
-0.06627345
-0.02953106
0.002732372
-0.04663256
-0.02353969
0.001727893
-0.02762665
-0.01728135
0.0005594557
-0.007169344
-0.01242903
0.0002707647
0.01443758
-0.009019047
4.37337e-05
0.03392039
-0.006259256
-2.344469e-05
0.0506973
-0.003391205
-4.506782e-05
0.06586098
0.002203817
-4.577253e-05
0.07981379
-1.438165e-05
0.09023404
0.02749721
-1.202499e-05
0.006368327
0.02771894
-4.104295e-05
0.01021064
0.02873541
-0.0001031454
0.01033114
0.03173578
-0.0002990365
0.007295133
0.0387781
-0.000770891
0.0001455376
0.0490685
0.0009296316
-0.009748141
0.05901249
0.002685447
-0.01621682
0.06669031
0.003185799
-0.02231994
0.07153354
0.003780972
-0.03068885
0.07349969
0.004565373
-0.040663
0.07257019
0.005490774
-0.05176463
0.06870441
0.006575384
-0.06354148
0.06189025
0.007836061
-0.07551256
0.05218346
0.009270139
-0.08710932
0.03978039
0.01078563
-0.09757877
0.02511654
0.01207276
-0.1057701
0.009033555
0.01255958
-0.1099792
-0.006738412
0.01168669
-0.1081064
-0.01972308
0.009671208
-0.09884361
-0.02809693
0.007557767
-0.08416484
-0.03123545
0.005795396
-0.06587988
-0.02962809
0.004394619
-0.04612663
-0.02446454
0.003048095
-0.02677403
-0.01797133
0.001156372
-0.006759556
-0.01254753
9.102736e-05
0.01457068
-0.009033794
-3.632942e-05
0.03414407
-0.006281504
-8.5201e-05
0.0507898
-0.003407772
-0.0001135074
0.06585724
0.002198305
-0.0001094696
0.07976592
-3.942292e-05
0.09019186
0.02745097
-1.507371e-05
0.006375159
0.02761061
-4.688154e-05
0.01024274
0.02846403
-0.0001094803
0.01043038
0.03077745
-0.0002461335
0.007668718
0.03574563
-0.0004402874
0.001535734
0.04508079
0.0006363179
-0.009071677
0.05721093
0.002641777
-0.01696505
0.06582227
0.00370337
-0.02189604
0.07101056
0.004673894
-0.02986104
0.07320152
0.005770443
-0.0396422
0.07241907
0.007035346
-0.050603
0.06863402
0.00848602
-0.06230362
0.06183646
0.01013431
-0.07425679
0.05209565
0.01195365
-0.0858595
0.03964552
0.01381069
-0.09630866
0.02498367
0.01535335
-0.1044509
0.008993087
0.01598429
-0.108669
-0.00665862
0.01511621
-0.1069487
-0.0196046
0.01283592
-0.09787386
-0.02798472
0.01015971
-0.08322677
-0.03104788
0.00771776
-0.06491062
-0.02921909
0.005736173
-0.04522796
-0.0238614
0.004040706
-0.02611177
-0.01752793
0.001494465
-0.005972705
-0.01240084
-0.0001054317
0.01534641
-0.00902509
-0.0001401689
0.03450734
-0.006321412
-0.0001890423
0.05086363
-0.003445698
-0.0002318101
0.06576357
0.002180082
-0.0002186961
0.07959536
-8.250069e-05
0.09003679
0.02739696
-1.79134e-05
0.006377624
0.0274915
-4.658364e-05
0.01026841
0.02816896
-8.295128e-05
0.01053374
0.03009837
-0.0001312475
0.008008405
0.0344755
-0.0001310968
0.002254481
0.04329975
0.0006050236
-0.008577336
0.05583059
0.002447929
-0.01661941
0.06490714
0.003969701
-0.02114059
0.07044289
0.005385503
-0.02877163
0.07287257
0.006884301
-0.03829234
0.07225278
0.008548422
-0.04908422
0.06855401
0.01041788
-0.06070349
0.06176565
0.01250462
-0.07265534
0.05196375
0.01476155
-0.08430385
0.03941206
0.01701108
-0.09479251
0.02466481
0.01884706
-0.1029337
0.008659725
0.01962392
-0.1071335
-0.006929397
0.01870088
-0.1054124
-0.01980378
0.01605766
-0.0963606
-0.02809648
0.01269315
-0.08166186
-0.03094661
0.009414559
-0.06331878
-0.02852112
0.006606557
-0.04383253
-0.02183932
0.004094446
-0.02552945
-0.01603535
0.001222346
-0.00491231
-0.01207007
0.0001242237
0.0166719
-0.009049106
-0.0001783087
0.03490782
-0.00641546
-0.0003352229
0.05081791
-0.003527259
-0.0004115818
0.06547323
0.002137349
-0.0003854402
0.07919382
-0.0001476556
0.08967791
0.02735429
-2.677036e-05
0.006369678
0.02741933
-6.102146e-05
0.01027542
0.02803066
-8.550686e-05
0.01061139
0.02985333
-8.954591e-05
0.008267534
0.03413622
-1.065317e-05
0.002783997
0.04280789
0.0005516068
-0.007797462
0.05524401
0.002405579
-0.01564683
0.06439498
0.004320043
-0.01990589
0.07005463
0.006143839
-0.02724393
0.07261406
0.00804172
-0.03652417
0.07210099
0.01012201
-0.04715081
0.06846072
0.01244116
-0.05869616
0.06166181
0.01501128
-0.07066604
0.0517729
0.01776245
-0.08239628
0.03907658
0.02046544
-0.09297361
0.02417613
0.02264265
-0.1011534
0.008066994
0.02357184
-0.1053187
-0.007529886
0.02252881
-0.1034771
-0.02035567
0.01942057
-0.09429661
-0.0285731
0.01526408
-0.07943682
-0.03129407
0.01106028
-0.06101051
-0.02867145
0.007409614
-0.04164781
-0.02185044
0.004270995
-0.02374016
-0.01616816
0.001181653
-0.003540003
-0.01222719
0.0001081646
0.0175569
-0.009259946
-0.0003256015
0.03512594
-0.006627354
-0.0005684459
0.05051894
-0.003684564
-0.0006782121
0.06484711
0.002054452
-0.0006272212
0.07842122
-0.0002408888
0.08899955
0.0273092
-4.670387e-05
0.006337238
0.02736497
-0.000102861
0.01023343
0.02794782
-0.0001385589
0.01062757
0.02972423
-0.0001471298
0.008448465
0.03398022
-9.486305e-05
0.003254219
0.04264805
0.0003158643
-0.006901704
0.05498864
0.002452496
-0.01439561
0.06401944
0.004964629
-0.01834419
0.06967899
0.007106855
-0.02536531
0.0723053
0.009337003
-0.03437423
0.07186885
0.0118218
-0.04480995
0.06827603
0.01460784
-0.05626829
0.06146202
0.01770246
-0.06825955
0.05147817
0.02100757
-0.08009248
0.03861723
0.02423121
-0.0907916
0.02352489
0.02680372
-0.09903768
0.007252472
0.02789713
-0.1031569
-0.00840536
0.02667273
-0.101105
-0.02120719
0.02300316
-0.0916771
-0.02936121
0.01796619
-0.07657359
-0.03198843
0.01277452
-0.0580505
-0.02923061
0.008258021
-0.03887212
-0.02224639
0.004513729
-0.02146782
-0.01654774
0.00114303
-0.001830094
-0.01260645
-3.492786e-05
0.01829434
-0.009650042
-0.0005828866
0.03504298
-0.006981345
-0.0009075468
0.04978363
-0.003943063
-0.001051404
0.0636937
0.001914641
-0.0009621413
0.07708859
-0.00036757
0.08784461
0.02723941
-8.241765e-05
0.006258298
0.02729395
-0.0001786916
0.01009781
0.02784631
-0.0002432016
0.0105306
0.02953989
-0.0002846689
0.008529088
0.03367477
-0.000361036
0.003694588
0.04231203
-0.0004164015
-0.005802032
0.05438615
0.002766457
-0.01304082
0.06327466
0.006122214
-0.01676165
0.06897226
0.008297132
-0.02329312
0.07170006
0.01075624
-0.03194431
0.0713726
0.01364017
-0.04211714
0.06785962
0.01691916
-0.05343765
0.06106138
0.02058858
-0.06542437
0.05100769
0.02451649
-0.07735637
0.03799611
0.02833719
-0.08818972
0.02270889
0.03136684
-0.09651485
0.00625095
0.03264308
-0.100577
-0.009491098
0.03118222
-0.09824994
-0.02227785
0.02686344
-0.08849661
-0.03036982
0.02086612
-0.07311272
-0.03291246
0.01462674
-0.05453853
-0.03002505
0.009193909
-0.03568081
-0.02283461
0.004785905
-0.01899674
-0.0171061
0.001047213
-0.0001397441
-0.01318196
-0.0002610421
0.01872356
-0.01023602
-0.0009373163
0.03444906
-0.007511682
-0.001357307
0.04837711
-0.004337519
-0.001545126
0.06176386
0.001694966
-0.001408439
0.07494394
-0.0005300174
0.08600135
0.0271119
-0.0001394394
0.00610063
0.02716655
-0.000292834
0.009807198
0.02766003
-0.0003887985
0.01024722
0.02916148
-0.0004485092
0.008444453
0.03255515
-0.0004401986
0.004179867
0.03903598
-1.619464e-05
-0.00354101
0.04972326
0.001761745
-0.01154909
0.06085124
0.00566528
-0.01660144
0.06745516
0.009013897
-0.02140588
0.07049278
0.01211483
-0.02933775
0.07038997
0.01547787
-0.03912869
0.06704374
0.01931504
-0.05022756
0.06033709
0.02363264
-0.06215519
0.05027963
0.02827079
-0.07415696
0.03717079
0.03277986
-0.08511357
0.02172485
0.03634048
-0.0935148
0.005098461
0.03782785
-0.09750789
-0.01071697
0.03608289
-0.09486372
-0.02347339
0.03103379
-0.08475104
-0.03149145
0.02400092
-0.06910241
-0.03395635
0.01665514
-0.05058125
-0.0309683
0.01024463
-0.03223762
-0.02364451
0.005102323
-0.01652112
-0.01783847
0.0009475475
0.001054742
-0.01396804
-0.0005452538
0.01861365
-0.01104727
-0.001373222
0.03308809
-0.008262545
-0.00191112
0.04601571
-0.004916437
-0.002164552
0.05874489
0.001366015
-0.001990319
0.07165687
-0.000714638
0.08317528
0.02687204
-0.0002250553
0.005819648
0.02693324
-0.0004523322
0.009283788
0.02736049
-0.0005784576
0.009689433
0.02865071
-0.0006428674
0.008111452
0.03188715
-0.0006782265
0.004392176
0.03895962
-0.0004897954
-0.002838401
0.04939411
0.001808819
-0.01043094
0.05882109
0.006068414
-0.01445937
0.06525722
0.009772453
-0.01920748
0.06857146
0.01334196
-0.02655134
0.06876453
0.01724563
-0.03583643
0.06569226
0.02170589
-0.04663545
0.05918876
0.02676024
-0.05844098
0.04923176
0.03221776
-0.07046467
0.03611554
0.03752902
-0.08151285
0.02058185
0.04171316
-0.08997167
0.003839249
0.04345284
-0.09388238
-0.01200393
0.0413806
-0.09090347
-0.02468232
0.03551733
-0.08044177
-0.03258755
0.02736909
-0.06459866
-0.03496933
0.01885752
-0.0462874
-0.03192396
0.0114086
-0.02869229
-0.02455752
0.005456557
-0.01422035
-0.01870111
0.00086031
0.001677532
-0.01494651
-0.0008631346
0.01774571
-0.01209516
-0.001863842
0.03070603
-0.009275541
-0.002544098
0.0423935
-0.005747614
-0.002894926
0.05426927
0.0008102208
-0.002698224
0.06681495
-0.0009175348
0.07893895
0.02641026
-0.0003459002
0.005356224
0.02648192
-0.0006579644
0.008435823
0.02682791
-0.0008051305
0.008765506
0.0278769
-0.0008665254
0.007431398
0.03066161
-0.0009789902
0.004359164
0.03703786
-0.001176994
-0.001705048
0.04667082
0.001659736
-0.008884969
0.05567676
0.006495621
-0.01270041
0.06218258
0.01043346
-0.01678692
0.06577991
0.01439771
-0.02347115
0.06636638
0.01882673
-0.03224061
0.06370863
0.02395833
-0.04267945
0.05756022
0.02985423
-0.05428803
0.04784496
0.03627359
-0.0662633
0.03484089
0.04253728
-0.07734852
0.01931488
0.04746708
-0.08583164
0.002532431
0.04951697
-0.08964677
-0.01326431
0.04707106
-0.08634097
-0.02577821
0.04028692
-0.0755853
-0.033483
0.03091506
-0.05966742
-0.03573329
0.02116487
-0.04175905
-0.03266478
0.01262479
-0.02515204
-0.02534951
0.005786931
-0.01219012
-0.01958085
0.0007275175
0.001808016
-0.01601708
-0.001205314
0.01597392
-0.01332257
-0.002373003
0.02711421
-0.01055147
-0.003207729
0.03724234
-0.006888299
-0.003691903
0.04794759
-4.278986e-05
-0.003512514
0.05989201
-0.001074022
0.07268521
0.02549205
-0.0004982341
0.004641043
0.02555444
-0.0008847711
0.007174558
0.02576822
-0.001026479
0.007403216
0.02646434
-0.001055942
0.006358164
0.02824924
-0.00108788
0.004100684
0.03211027
-0.001109777
7.874387e-05
0.04012603
0.000583302
-0.007133959
0.05058437
0.005583922
-0.01164821
0.05771928
0.01057755
-0.0142518
0.06183389
0.01502037
-0.02020862
0.06306374
0.01994007
-0.02844288
0.06106064
0.02583033
-0.03844049
0.05547836
0.03273882
-0.04974717
0.0461767
0.04033408
-0.06157267
0.0334167
0.0477642
-0.07261665
0.0179963
0.0536088
-0.08107759
0.001252082
0.05605132
-0.08478656
-0.01441244
0.05316948
-0.08118858
-0.02663595
0.0452948
-0.07023295
-0.03397705
0.03451196
-0.05439939
-0.03595048
0.02339824
-0.0370965
-0.0328301
0.0137254
-0.02166813
-0.02566868
0.005941488
-0.01037525
-0.0201552
0.0004716844
0.001484447
-0.01689261
-0.0015859
0.01331972
-0.01450082
-0.00286378
0.02228902
-0.01195818
-0.003830477
0.03045076
-0.008328891
-0.004475071
0.03947601
-0.001337858
-0.004348645
0.05030435
-0.000977116
0.0634255
0.02361438
-0.0006522018
0.003614262
0.02360866
-0.001063901
0.005456845
0.0236239
-0.00116614
0.005592403
0.02391367
-0.001151186
0.004896163
0.02495321
-0.001141047
0.003481618
0.02767655
-0.00116737
0.0007947383
0.03425894
-0.0003969381
-0.005097696
0.04403463
0.004416426
-0.009126035
0.05146185
0.01017571
-0.01157009
0.0565869
0.01459507
-0.01700936
0.05890733
0.02006126
-0.0246375
0.05789822
0.02696078
-0.0340808
0.05312208
0.03520278
-0.04495439
0.04439488
0.04430969
-0.05650992
0.03198413
0.05320876