/*--------------------------------*- C++ -*----------------------------------*\
| =========                 |                                                 |
| \\      /  F ield         | OpenFOAM: The Open Source CFD Toolbox           |
|  \\    /   O peration     | Version:  2506                                  |
|   \\  /    A nd           | Website:  www.openfoam.com                      |
|    \\/     M anipulation  |                                                 |
\*---------------------------------------------------------------------------*/
FoamFile
{
    version     2.0;
    format      ascii;
    arch        "LSB;label=32;scalar=64";
    class       volScalarField;
    location    "3500/floor";
    object      T;
}
// * * * * * * * * * * * * * * * * * * * * * * * * * * * * * * * * * * * * * //

dimensions      [0 0 0 1 0 0 0];

internalField   nonuniform List<scalar> 
2700
(
301.7288
301.7312
301.7342
301.7371
301.7396
301.7419
301.7439
301.7456
301.7471
301.7484
301.7494
301.7501
301.7507
301.7511
301.7513
301.7513
301.7511
301.7507
301.7501
301.7492
301.7481
301.7468
301.7452
301.7434
301.7413
301.7389
301.7362
301.7333
301.7302
301.7277
301.7313
301.7337
301.7366
301.7394
301.7419
301.7442
301.7461
301.7478
301.7492
301.7504
301.7514
301.7521
301.7527
301.7531
301.7533
301.7533
301.7531
301.7527
301.7521
301.7512
301.7502
301.7489
301.7474
301.7456
301.7435
301.7412
301.7385
301.7356
301.7326
301.7302
301.7344
301.7367
301.7396
301.7423
301.7448
301.7469
301.7488
301.7504
301.7518
301.753
301.7539
301.7546
301.7551
301.7555
301.7557
301.7557
301.7555
301.7551
301.7545
301.7537
301.7527
301.7515
301.75
301.7482
301.7462
301.744
301.7414
301.7385
301.7356
301.7332
301.7373
301.7396
301.7424
301.7451
301.7475
301.7496
301.7514
301.7529
301.7542
301.7553
301.7562
301.7569
301.7574
301.7577
301.7579
301.7579
301.7577
301.7573
301.7568
301.756
301.7551
301.7539
301.7524
301.7508
301.7488
301.7466
301.7441
301.7413
301.7384
301.7361
301.74
301.7422
301.745
301.7476
301.7499
301.7519
301.7536
301.7551
301.7564
301.7574
301.7583
301.7589
301.7594
301.7597
301.7599
301.7599
301.7597
301.7593
301.7588
301.7581
301.7571
301.756
301.7546
301.753
301.7511
301.749
301.7465
301.7438
301.741
301.7387
301.7423
301.7445
301.7472
301.7498
301.752
301.7539
301.7556
301.757
301.7582
301.7592
301.76
301.7606
301.7611
301.7614
301.7616
301.7615
301.7614
301.761
301.7605
301.7598
301.7589
301.7578
301.7565
301.755
301.7531
301.7511
301.7487
301.746
301.7433
301.741
301.7444
301.7466
301.7492
301.7517
301.7538
301.7557
301.7573
301.7587
301.7598
301.7608
301.7615
301.7621
301.7626
301.7629
301.763
301.763
301.7628
301.7625
301.762
301.7614
301.7605
301.7594
301.7582
301.7567
301.7549
301.7529
301.7506
301.748
301.7452
301.743
301.7462
301.7483
301.7509
301.7533
301.7554
301.7573
301.7588
301.7601
301.7612
301.7621
301.7628
301.7634
301.7638
301.7641
301.7642
301.7642
301.764
301.7637
301.7633
301.7626
301.7618
301.7608
301.7596
301.7581
301.7564
301.7544
301.7522
301.7496
301.747
301.7448
301.7479
301.7499
301.7524
301.7547
301.7568
301.7585
301.76
301.7613
301.7624
301.7632
301.7639
301.7644
301.7648
301.7651
301.7652
301.7652
301.7651
301.7648
301.7643
301.7637
301.7629
301.7619
301.7607
301.7593
301.7577
301.7557
301.7535
301.7511
301.7485
301.7463
301.7496
301.7513
301.7536
301.7559
301.7579
301.7596
301.7611
301.7623
301.7633
301.7641
301.7648
301.7653
301.7657
301.7659
301.7661
301.766
301.7659
301.7656
301.7652
301.7646
301.7638
301.7629
301.7617
301.7603
301.7587
301.7568
301.7547
301.7522
301.7497
301.7476
301.7531
301.7531
301.7548
301.7569
301.7588
301.7605
301.7619
301.7631
301.7641
301.7649
301.7655
301.766
301.7664
301.7666
301.7667
301.7667
301.7666
301.7663
301.7659
301.7653
301.7646
301.7636
301.7624
301.761
301.7593
301.7575
301.7553
301.7529
301.7504
301.7484
301.7613
301.7559
301.7559
301.7577
301.7595
301.7612
301.7626
301.7637
301.7647
301.7654
301.7661
301.7665
301.7669
301.7671
301.7672
301.7672
301.7671
301.7668
301.7664
301.7659
301.7651
301.7641
301.7628
301.7609
301.7589
301.7569
301.7546
301.7519
301.7496
301.7478
301.76
301.7564
301.7566
301.7583
301.7601
301.7617
301.763
301.7642
301.7651
301.7659
301.7665
301.7669
301.7673
301.7675
301.7676
301.7676
301.7675
301.7672
301.7668
301.7663
301.7655
301.7643
301.7623
301.7589
301.7551
301.7523
301.7488
301.7444
301.742
301.7409
301.7702
301.7599
301.7576
301.7587
301.7604
301.762
301.7633
301.7645
301.7654
301.7661
301.7667
301.7672
301.7675
301.7678
301.7679
301.7679
301.7677
301.7675
301.7671
301.7665
301.7657
301.7642
301.7608
301.754
301.7464
301.7414
301.7349
301.7295
301.7275
301.7274
301.7743
301.7614
301.7581
301.759
301.7606
301.7622
301.7635
301.7646
301.7655
301.7663
301.7669
301.7673
301.7676
301.7679
301.768
301.768
301.7679
301.7676
301.7672
301.7666
301.7658
301.7641
301.76
301.7517
301.7423
301.7364
301.729
301.7232
301.7207
301.7196
301.775
301.7617
301.7582
301.759
301.7606
301.7622
301.7635
301.7646
301.7655
301.7663
301.7669
301.7673
301.7677
301.7679
301.768
301.768
301.7679
301.7676
301.7672
301.7666
301.7658
301.764
301.7597
301.751
301.7412
301.7352
301.7276
301.7216
301.7187
301.7169
301.7741
301.7612
301.7579
301.7588
301.7604
301.762
301.7633
301.7645
301.7654
301.7663
301.767
301.7673
301.7676
301.7678
301.7679
301.7679
301.7677
301.7675
301.7671
301.7665
301.7656
301.7639
301.7596
301.7508
301.7411
301.735
301.7274
301.7214
301.7183
301.7163
301.7695
301.7593
301.7572
301.7584
301.7601
301.7617
301.763
301.7642
301.7652
301.7664
301.7679
301.7675
301.7674
301.7675
301.7676
301.7676
301.7675
301.7672
301.7668
301.7662
301.7654
301.7637
301.7595
301.7512
301.7418
301.7359
301.7285
301.7228
301.7198
301.7176
301.7587
301.7552
301.7558
301.7577
301.7595
301.7612
301.7626
301.7638
301.765
301.7669
301.7695
301.7679
301.7672
301.7672
301.7672
301.7672
301.7671
301.7668
301.7664
301.7658
301.765
301.7634
301.76
301.7532
301.7456
301.7405
301.7342
301.7305
301.7278
301.7257
301.7516
301.7526
301.7547
301.7569
301.7588
301.7605
301.7619
301.7631
301.7642
301.7655
301.7669
301.7666
301.7665
301.7666
301.7667
301.7667
301.7666
301.7663
301.7659
301.7653
301.7645
301.7633
301.7612
301.7578
301.754
301.7511
301.7479
301.7452
301.7427
301.7406
301.7493
301.7512
301.7536
301.7559
301.7579
301.7596
301.7611
301.7623
301.7633
301.7643
301.7651
301.7654
301.7657
301.7659
301.766
301.766
301.7659
301.7656
301.7652
301.7646
301.7638
301.7628
301.7614
301.7595
301.7573
301.7553
301.753
301.7507
301.7484
301.7461
301.7478
301.7499
301.7524
301.7547
301.7568
301.7585
301.76
301.7613
301.7623
301.7632
301.7639
301.7644
301.7648
301.7651
301.7652
301.7652
301.765
301.7647
301.7643
301.7637
301.7629
301.7619
301.7607
301.7591
301.7574
301.7555
301.7535
301.7517
301.7502
301.7472
301.7462
301.7483
301.7509
301.7533
301.7554
301.7572
301.7588
301.7601
301.7612
301.7621
301.7628
301.7634
301.7638
301.764
301.7642
301.7642
301.764
301.7637
301.7632
301.7626
301.7618
301.7608
301.7595
301.758
301.7563
301.7544
301.7526
301.7516
301.7515
301.7473
301.7444
301.7465
301.7492
301.7516
301.7538
301.7557
301.7573
301.7587
301.7598
301.7607
301.7615
301.7621
301.7625
301.7628
301.7629
301.7629
301.7628
301.7625
301.762
301.7613
301.7604
301.7594
301.7581
301.7566
301.7548
301.7529
301.7508
301.7489
301.7473
301.7442
301.7423
301.7445
301.7472
301.7497
301.752
301.7539
301.7556
301.757
301.7582
301.7592
301.76
301.7606
301.761
301.7613
301.7615
301.7615
301.7613
301.761
301.7605
301.7598
301.7589
301.7578
301.7565
301.7549
301.7531
301.751
301.7487
301.7462
301.7437
301.7413
301.7399
301.7422
301.7449
301.7475
301.7498
301.7518
301.7536
301.7551
301.7563
301.7574
301.7582
301.7588
301.7593
301.7596
301.7598
301.7598
301.7596
301.7593
301.7587
301.758
301.7571
301.7559
301.7546
301.7529
301.7511
301.7489
301.7465
301.7438
301.741
301.7387
301.7372
301.7395
301.7424
301.745
301.7474
301.7495
301.7513
301.7528
301.7542
301.7552
301.7561
301.7568
301.7573
301.7577
301.7578
301.7578
301.7576
301.7573
301.7567
301.7559
301.755
301.7538
301.7524
301.7507
301.7488
301.7465
301.744
301.7413
301.7384
301.736
301.7343
301.7366
301.7395
301.7423
301.7447
301.7469
301.7487
301.7503
301.7517
301.7529
301.7538
301.7545
301.755
301.7554
301.7556
301.7556
301.7554
301.755
301.7544
301.7536
301.7526
301.7514
301.7499
301.7482
301.7462
301.7439
301.7413
301.7385
301.7355
301.7331
301.7312
301.7336
301.7365
301.7393
301.7419
301.7441
301.746
301.7477
301.7491
301.7503
301.7513
301.7521
301.7526
301.753
301.7532
301.7532
301.753
301.7526
301.752
301.7511
301.7501
301.7488
301.7473
301.7455
301.7434
301.7411
301.7385
301.7355
301.7325
301.7301
301.7287
301.7312
301.7341
301.737
301.7396
301.7418
301.7438
301.7455
301.747
301.7483
301.7493
301.75
301.7506
301.751
301.7512
301.7512
301.751
301.7506
301.75
301.7491
301.748
301.7467
301.7451
301.7433
301.7412
301.7388
301.7361
301.7332
301.7301
301.7277
301.0402
301.0444
301.0493
301.054
301.0582
301.062
301.0652
301.068
301.0704
301.0725
301.0741
301.0754
301.0763
301.077
301.0773
301.0773
301.0769
301.0762
301.0752
301.0738
301.0721
301.0699
301.0673
301.0643
301.0609
301.0569
301.0525
301.0477
301.0425
301.0383
301.0445
301.0486
301.0535
301.0581
301.0622
301.0658
301.069
301.0718
301.0741
301.0761
301.0776
301.0789
301.0798
301.0804
301.0807
301.0807
301.0803
301.0797
301.0787
301.0773
301.0756
301.0735
301.071
301.0681
301.0647
301.0608
301.0565
301.0517
301.0467
301.0425
301.0496
301.0536
301.0584
301.0629
301.0669
301.0704
301.0735
301.0761
301.0784
301.0803
301.0818
301.0829
301.0838
301.0844
301.0847
301.0847
301.0843
301.0837
301.0827
301.0815
301.0798
301.0778
301.0753
301.0725
301.0692
301.0655
301.0613
301.0566
301.0516
301.0475
301.0544
301.0584
301.0631
301.0675
301.0713
301.0748
301.0777
301.0802
301.0824
301.0842
301.0856
301.0867
301.0875
301.0881
301.0884
301.0883
301.088
301.0874
301.0865
301.0853
301.0837
301.0817
301.0794
301.0767
301.0735
301.0698
301.0657
301.0612
301.0563
301.0523
301.0588
301.0627
301.0673
301.0715
301.0753
301.0786
301.0814
301.0839
301.0859
301.0876
301.089
301.09
301.0908
301.0913
301.0916
301.0916
301.0913
301.0907
301.0898
301.0886
301.0871
301.0852
301.083
301.0803
301.0773
301.0737
301.0697
301.0653
301.0605
301.0566
301.0627
301.0665
301.071
301.0751
301.0788
301.082
301.0847
301.087
301.089
301.0906
301.0919
301.0929
301.0936
301.0941
301.0944
301.0943
301.0941
301.0935
301.0927
301.0915
301.0901
301.0883
301.0861
301.0835
301.0806
301.0772
301.0733
301.0689
301.0643
301.0604
301.0661
301.0699
301.0742
301.0783
301.0818
301.0849
301.0875
301.0897
301.0916
301.0932
301.0944
301.0953
301.096
301.0965
301.0967
301.0967
301.0964
301.0959
301.0951
301.094
301.0926
301.0909
301.0888
301.0863
301.0834
301.0801
301.0763
301.0721
301.0676
301.0637
301.0691
301.0728
301.077
301.081
301.0844
301.0874
301.0899
301.0921
301.0939
301.0953
301.0965
301.0974
301.0981
301.0985
301.0987
301.0987
301.0985
301.098
301.0972
301.0961
301.0948
301.0931
301.0911
301.0887
301.0859
301.0827
301.079
301.0748
301.0704
301.0666
301.0718
301.0753
301.0794
301.0833
301.0866
301.0895
301.092
301.094
301.0958
301.0972
301.0983
301.0991
301.0998
301.1002
301.1004
301.1004
301.1001
301.0997
301.0989
301.0979
301.0966
301.095
301.093
301.0907
301.088
301.0848
301.0812
301.0772
301.0728
301.0691
301.0747
301.0776
301.0815
301.0852
301.0885
301.0913
301.0937
301.0957
301.0973
301.0987
301.0997
301.1006
301.1012
301.1016
301.1018
301.1018
301.1015
301.1011
301.1003
301.0994
301.0981
301.0965
301.0946
301.0923
301.0897
301.0866
301.0831
301.0791
301.0748
301.0712
301.0807
301.0805
301.0833
301.0868
301.09
301.0927
301.095
301.097
301.0986
301.0999
301.1009
301.1017
301.1023
301.1027
301.1029
301.1029
301.1026
301.1022
301.1015
301.1005
301.0993
301.0978
301.0959
301.0935
301.0908
301.0878
301.0843
301.0803
301.0761
301.0726
301.0986
301.0853
301.0852
301.0881
301.0912
301.0938
301.0961
301.098
301.0995
301.1008
301.1018
301.1026
301.1032
301.1035
301.1037
301.1037
301.1035
301.1031
301.1024
301.1014
301.1002
301.0986
301.0965
301.0937
301.0905
301.0872
301.0834
301.0786
301.0745
301.0712
301.0925
301.0855
301.0861
301.089
301.092
301.0947
301.0969
301.0987
301.1003
301.1015
301.1025
301.1032
301.1038
301.1042
301.1044
301.1043
301.1041
301.1037
301.103
301.1021
301.1009
301.0991
301.0961
301.0913
301.0859
301.0814
301.0752
301.0639
301.0582
301.0558
301.1114
301.0909
301.0877
301.0898
301.0926
301.0952
301.0974
301.0992
301.1007
301.102
301.1029
301.1037
301.1042
301.1046
301.1048
301.1047
301.1045
301.1041
301.1035
301.1025
301.1012
301.099
301.0944
301.0854
301.0748
301.0671
301.0553
301.0419
301.0365
301.0351
301.1177
301.0932
301.0884
301.0901
301.0929
301.0955
301.0977
301.0995
301.101
301.1022
301.1031
301.1039
301.1044
301.1048
301.105
301.105
301.1047
301.1043
301.1037
301.1027
301.1014
301.0989
301.0935
301.0825
301.0697
301.0607
301.0474
301.0333
301.0272
301.0247
301.1187
301.0936
301.0885
301.0902
301.0929
301.0955
301.0977
301.0995
301.101
301.1022
301.1032
301.1039
301.1044
301.1048
301.105
301.1049
301.1047
301.1043
301.1037
301.1027
301.1014
301.0989
301.0931
301.0817
301.0683
301.0591
301.0455
301.0312
301.0246
301.0213
301.1173
301.0928
301.0881
301.0898
301.0926
301.0952
301.0974
301.0992
301.1008
301.1021
301.1033
301.1038
301.1043
301.1046
301.1048
301.1047
301.1045
301.1041
301.1034
301.1025
301.1011
301.0986
301.0929
301.0815
301.0681
301.0588
301.0452
301.0309
301.0242
301.0205
301.1096
301.0901
301.087
301.0892
301.092
301.0947
301.0969
301.0988
301.1004
301.1023
301.1044
301.104
301.104
301.1042
301.1044
301.1043
301.1041
301.1037
301.103
301.1021
301.1007
301.0982
301.0927
301.0818
301.0689
301.0599
301.0466
301.0332
301.0277
301.0229
301.094
301.0841
301.085
301.0881
301.0911
301.0938
301.0961
301.098
301.1
301.1027
301.1065
301.1045
301.1036
301.1036
301.1037
301.1037
301.1035
301.103
301.1024
301.1014
301.1001
301.0978
301.0931
301.0841
301.0735
301.0657
301.0548
301.0481
301.0435
301.0399
301.0782
301.0798
301.0832
301.0868
301.09
301.0927
301.095
301.097
301.0987
301.1007
301.1028
301.1025
301.1025
301.1027
301.1029
301.1028
301.1026
301.1022
301.1015
301.1005
301.0992
301.0974
301.0944
301.0895
301.084
301.0795
301.0741
301.0697
301.0654
301.0618
301.0741
301.0774
301.0814
301.0852
301.0885
301.0913
301.0936
301.0956
301.0973
301.0988
301.1001
301.1007
301.1012
301.1016
301.1017
301.1017
301.1015
301.101
301.1003
301.0993
301.0981
301.0964
301.0942
301.0913
301.088
301.0846
301.0809
301.0771
301.0731
301.0692
301.0717
301.0752
301.0794
301.0832
301.0866
301.0895
301.0919
301.094
301.0957
301.0972
301.0983
301.0991
301.0997
301.1002
301.1004
301.1003
301.1001
301.0996
301.0989
301.0979
301.0966
301.0949
301.0929
301.0905
301.0877
301.0845
301.0811
301.078
301.0751
301.0703
301.0691
301.0727
301.077
301.0809
301.0844
301.0873
301.0899
301.092
301.0938
301.0953
301.0965
301.0974
301.098
301.0985
301.0987
301.0987
301.0984
301.0979
301.0971
301.0961
301.0947
301.0931
301.091
301.0886
301.0858
301.0827
301.0796
301.0774
301.0762
301.0698
301.0661
301.0698
301.0742
301.0782
301.0818
301.0848
301.0875
301.0897
301.0916
301.0931
301.0943
301.0953
301.096
301.0964
301.0967
301.0966
301.0964
301.0958
301.095
301.094
301.0926
301.0908
301.0887
301.0863
301.0834
301.0801
301.0766
301.0733
301.0702
301.0652
301.0626
301.0664
301.0709
301.0751
301.0787
301.0819
301.0846
301.0869
301.0889
301.0905
301.0918
301.0928
301.0935
301.094
301.0943
301.0943
301.094
301.0934
301.0926
301.0915
301.09
301.0882
301.086
301.0835
301.0805
301.0771
301.0733
301.0692
301.0649
301.0607
301.0587
301.0626
301.0672
301.0714
301.0752
301.0785
301.0814
301.0838
301.0858
301.0875
301.0889
301.0899
301.0907
301.0912
301.0915
301.0915
301.0912
301.0906
301.0897
301.0885
301.087
301.0851
301.0829
301.0802
301.0772
301.0737
301.0697
301.0653
301.0606
301.0566
301.0543
301.0583
301.063
301.0674
301.0713
301.0747
301.0776
301.0801
301.0823
301.0841
301.0855
301.0866
301.0874
301.088
301.0883
301.0882
301.0879
301.0873
301.0864
301.0852
301.0836
301.0816
301.0793
301.0766
301.0734
301.0698
301.0657
301.0611
301.0563
301.0522
301.0495
301.0535
301.0583
301.0628
301.0668
301.0703
301.0734
301.076
301.0783
301.0802
301.0817
301.0828
301.0837
301.0843
301.0846
301.0846
301.0842
301.0836
301.0826
301.0813
301.0797
301.0777
301.0752
301.0724
301.0691
301.0654
301.0612
301.0565
301.0515
301.0474
301.0444
301.0485
301.0534
301.058
301.0621
301.0657
301.0689
301.0716
301.074
301.0759
301.0775
301.0787
301.0797
301.0803
301.0806
301.0806
301.0802
301.0795
301.0786
301.0772
301.0755
301.0734
301.0709
301.0679
301.0646
301.0607
301.0564
301.0516
301.0466
301.0424
301.0401
301.0443
301.0492
301.0539
301.0581
301.0618
301.0651
301.0679
301.0703
301.0723
301.074
301.0752
301.0762
301.0768
301.0772
301.0771
301.0768
301.0761
301.0751
301.0737
301.0719
301.0698
301.0672
301.0642
301.0607
301.0568
301.0524
301.0475
301.0424
301.0382
300.7376
300.7455
300.7544
300.7626
300.77
300.7765
300.7822
300.7872
300.7914
300.795
300.7978
300.8
300.8017
300.8028
300.8034
300.8033
300.8027
300.8015
300.7997
300.7972
300.7941
300.7903
300.7858
300.7805
300.7745
300.7676
300.7599
300.7513
300.7422
300.734
300.7457
300.7536
300.7623
300.7704
300.7776
300.784
300.7895
300.7943
300.7984
300.8018
300.8046
300.8067
300.8083
300.8094
300.8099
300.8099
300.8092
300.8081
300.8063
300.804
300.801
300.7973
300.7929
300.7877
300.7818
300.7751
300.7675
300.7591
300.7501
300.7421
300.7549
300.7626
300.7711
300.779
300.786
300.7922
300.7976
300.8022
300.8061
300.8094
300.812
300.814
300.8155
300.8165
300.817
300.817
300.8164
300.8153
300.8136
300.8113
300.8085
300.8049
300.8006
300.7957
300.7899
300.7834
300.776
300.7678
300.7589
300.7511
300.7634
300.771
300.7793
300.787
300.7938
300.7998
300.805
300.8094
300.8131
300.8162
300.8187
300.8207
300.8221
300.8231
300.8235
300.8235
300.8229
300.8219
300.8203
300.8181
300.8153
300.8119
300.8078
300.803
300.7974
300.7911
300.7839
300.7758
300.7672
300.7595
300.7712
300.7785
300.7867
300.7942
300.8008
300.8065
300.8115
300.8157
300.8193
300.8223
300.8247
300.8265
300.8279
300.8288
300.8292
300.8291
300.8286
300.8276
300.8261
300.824
300.8213
300.818
300.8141
300.8095
300.8041
300.7979
300.7909
300.7831
300.7746
300.767
300.778
300.7852
300.7932
300.8005
300.8069
300.8125
300.8172
300.8213
300.8247
300.8275
300.8298
300.8315
300.8328
300.8337
300.8341
300.834
300.8335
300.8326
300.8311
300.8291
300.8265
300.8234
300.8196
300.8151
300.8099
300.8039
300.7971
300.7895
300.7812
300.7738
300.7841
300.7911
300.7989
300.806
300.8122
300.8176
300.8222
300.8261
300.8294
300.832
300.8342
300.8358
300.8371
300.8379
300.8383
300.8382
300.8377
300.8368
300.8354
300.8335
300.831
300.828
300.8243
300.82
300.815
300.8091
300.8025
300.795
300.787
300.7797
300.7893
300.7962
300.8038
300.8107
300.8168
300.822
300.8264
300.8302
300.8333
300.8359
300.8379
300.8395
300.8406
300.8414
300.8418
300.8417
300.8413
300.8404
300.839
300.8372
300.8348
300.8319
300.8284
300.8242
300.8193
300.8136
300.8072
300.7999
300.7919
300.7848
300.794
300.8007
300.8081
300.8148
300.8207
300.8257
300.83
300.8336
300.8366
300.8391
300.8411
300.8425
300.8437
300.8444
300.8447
300.8447
300.8443
300.8434
300.8421
300.8403
300.838
300.8352
300.8318
300.8277
300.8229
300.8174
300.8111
300.804
300.7962
300.7892
300.7988
300.8047
300.8117
300.8182
300.8239
300.8289
300.833
300.8365
300.8394
300.8418
300.8436
300.8451
300.8461
300.8468
300.8472
300.8471
300.8467
300.8459
300.8446
300.8429
300.8407
300.8379
300.8346
300.8306
300.8259
300.8206
300.8144
300.8074
300.7997
300.7928
300.809
300.8093
300.8148
300.821
300.8266
300.8314
300.8354
300.8388
300.8416
300.8439
300.8457
300.8471
300.8481
300.8488
300.8491
300.8491
300.8487
300.8479
300.8466
300.845
300.8428
300.8401
300.8368
300.8328
300.8281
300.8228
300.8166
300.8096
300.8021
300.7954
300.8536
300.8176
300.8179
300.8233
300.8286
300.8333
300.8373
300.8406
300.8433
300.8456
300.8473
300.8487
300.8497
300.8503
300.8507
300.8506
300.8502
300.8494
300.8482
300.8466
300.8444
300.8417
300.8382
300.8336
300.8284
300.8228
300.8161
300.807
300.7992
300.7928
300.8382
300.8173
300.8195
300.8249
300.8302
300.8348
300.8387
300.8419
300.8446
300.8468
300.8485
300.8498
300.8508
300.8515
300.8518
300.8517
300.8513
300.8506
300.8494
300.8477
300.8456
300.8426
300.8382
300.8313
300.8234
300.8161
300.8051
300.7791
300.7585
300.7526
300.8719
300.8255
300.8218
300.8261
300.8312
300.8357
300.8396
300.8428
300.8454
300.8476
300.8493
300.8506
300.8515
300.8522
300.8525
300.8524
300.8521
300.8513
300.8501
300.8485
300.8463
300.8428
300.8364
300.8248
300.8105
300.7988
300.7794
300.7494
300.7286
300.7239
300.8813
300.8287
300.8228
300.8267
300.8317
300.8362
300.84
300.8432
300.8458
300.848
300.8497
300.8509
300.8519
300.8526
300.8529
300.8528
300.8524
300.8517
300.8505
300.8489
300.8466
300.8429
300.8355
300.8216
300.8046
300.7913
300.7695
300.7385
300.7169
300.711
300.8827
300.8291
300.8229
300.8267
300.8317
300.8362
300.84
300.8432
300.8458
300.848
300.8497
300.851
300.8519
300.8525
300.8529
300.8528
300.8524
300.8517
300.8505
300.8489
300.8466
300.8428
300.8352
300.8206
300.803
300.7894
300.7672
300.7359
300.7137
300.7069
300.8804
300.828
300.8223
300.8262
300.8312
300.8357
300.8396
300.8428
300.8455
300.8478
300.8498
300.8508
300.8516
300.8522
300.8525
300.8524
300.852
300.8513
300.8501
300.8485
300.8462
300.8424
300.8347
300.8202
300.8025
300.7889
300.7667
300.7355
300.7134
300.706
300.8591
300.824
300.8206
300.825
300.8302
300.8348
300.8387
300.8419
300.8448
300.8478
300.8509
300.8508
300.851
300.8515
300.8518
300.8517
300.8513
300.8505
300.8494
300.8477
300.8454
300.8417
300.8342
300.8202
300.8032
300.7898
300.7683
300.7394
300.7286
300.7104
300.8473
300.8159
300.8176
300.8232
300.8286
300.8333
300.8373
300.8407
300.8439
300.848
300.8532
300.8511
300.8502
300.8504
300.8506
300.8506
300.8502
300.8494
300.8482
300.8465
300.8442
300.8407
300.8342
300.8225
300.8082
300.7965
300.7793
300.7673
300.7591
300.752
300.8056
300.8084
300.8147
300.821
300.8266
300.8313
300.8354
300.8388
300.8418
300.8449
300.8481
300.8481
300.8483
300.8488
300.8491
300.8491
300.8486
300.8478
300.8466
300.8449
300.8427
300.8397
300.8351
300.8281
300.82
300.8128
300.8039
300.7962
300.7886
300.7817
300.7981
300.8044
300.8116
300.8182
300.8239
300.8288
300.833
300.8365
300.8394
300.8419
300.8441
300.8453
300.8461
300.8468
300.8471
300.8471
300.8467
300.8458
300.8446
300.8428
300.8406
300.8378
300.8341
300.8294
300.824
300.8182
300.8117
300.8049
300.7976
300.7904
300.7938
300.8006
300.808
300.8148
300.8207
300.8257
300.83
300.8336
300.8366
300.8391
300.8411
300.8425
300.8436
300.8443
300.8447
300.8446
300.8442
300.8433
300.842
300.8403
300.838
300.8351
300.8317
300.8274
300.8226
300.8171
300.811
300.8049
300.7989
300.7905
300.7893
300.7962
300.8038
300.8107
300.8167
300.8219
300.8264
300.8301
300.8333
300.8358
300.8379
300.8394
300.8406
300.8414
300.8417
300.8417
300.8412
300.8403
300.839
300.8371
300.8348
300.8318
300.8283
300.8241
300.8192
300.8137
300.8078
300.8029
300.7988
300.7886
300.784
300.7911
300.7988
300.8059
300.8121
300.8175
300.8221
300.826
300.8293
300.832
300.8341
300.8358
300.837
300.8378
300.8382
300.8381
300.8376
300.8367
300.8353
300.8334
300.8309
300.8279
300.8243
300.8199
300.8149
300.8091
300.8028
300.7964
300.7901
300.7814
300.778
300.7852
300.7931
300.8004
300.8068
300.8124
300.8171
300.8212
300.8246
300.8274
300.8297
300.8314
300.8327
300.8336
300.834
300.8339
300.8334
300.8325
300.831
300.829
300.8264
300.8233
300.8195
300.815
300.8098
300.8039
300.7971
300.7898
300.7819
300.7742
300.7711
300.7784
300.7866
300.7941
300.8007
300.8064
300.8114
300.8156
300.8192
300.8222
300.8245
300.8264
300.8277
300.8286
300.8291
300.829
300.8285
300.8275
300.826
300.8239
300.8212
300.8179
300.814
300.8094
300.804
300.7978
300.7908
300.7831
300.7747
300.767
300.7633
300.7709
300.7792
300.7869
300.7937
300.7997
300.8048
300.8092
300.813
300.8161
300.8186
300.8205
300.822
300.8229
300.8234
300.8234
300.8228
300.8217
300.8201
300.818
300.8152
300.8118
300.8077
300.8029
300.7973
300.791
300.7838
300.7757
300.7671
300.7594
300.7548
300.7624
300.771
300.7789
300.7859
300.7921
300.7974
300.802
300.8059
300.8092
300.8118
300.8139
300.8154
300.8164
300.8169
300.8168
300.8163
300.8151
300.8135
300.8112
300.8083
300.8048
300.8005
300.7955
300.7898
300.7833
300.7759
300.7676
300.7588
300.7509
300.7456
300.7534
300.7621
300.7702
300.7775
300.7838
300.7894
300.7942
300.7982
300.8017
300.8044
300.8065
300.8081
300.8092
300.8097
300.8097
300.8091
300.8079
300.8062
300.8038
300.8008
300.7971
300.7927
300.7876
300.7817
300.7749
300.7674
300.7589
300.75
300.7419
300.7375
300.7454
300.7542
300.7625
300.7699
300.7764
300.7821
300.787
300.7913
300.7948
300.7977
300.7999
300.8015
300.8027
300.8032
300.8032
300.8025
300.8013
300.7995
300.7971
300.794
300.7902
300.7856
300.7804
300.7743
300.7675
300.7597
300.7512
300.742
300.7339
)
;

boundaryField
{
    fmaxY
    {
        type            zeroGradient;
    }
    fminX
    {
        type            zeroGradient;
    }
    fmaxX
    {
        type            zeroGradient;
    }
    fminY
    {
        type            zeroGradient;
    }
    fminZ
    {
        type            externalWallHeatFluxTemperature;
        mode            coefficient;
        kappaMethod     solidThermo;
        kappa           none;
        h               constant 1000000;
        Ta              uniform 313;
        thicknessLayers List<scalar> 2(1 2);
        kappaLayers     List<scalar> 2(100 200);
        qr              none;
        refValue        uniform 313;
        refGradient     uniform 0;
        valueFraction   nonuniform List<scalar> 
900
(
0.04950261
0.04950261
0.04950261
0.04950261
0.04950261
0.04950261
0.04950261
0.04950261
0.04950261
0.04950261
0.04950261
0.04950261
0.04950261
0.04950261
0.04950261
0.04950261
0.04950261
0.04950261
0.04950261
0.04950261
0.04950261
0.04950261
0.04950261
0.04950261
0.04950261
0.04950261
0.04950261
0.04950261
0.04950261
0.04950261
0.04950261
0.04950261
0.04950261
0.04950261
0.04950261
0.04950261
0.04950261
0.04950261
0.04950261
0.04950261
0.04950261
0.04950261
0.04950261
0.04950261
0.04950261
0.04950261
0.04950261
0.04950261
0.04950261
0.04950261
0.04950261
0.04950261
0.04950261
0.04950261
0.04950261
0.04950261
0.04950261
0.04950261
0.04950261
0.04950261
0.04950261
0.04950261
0.04950261
0.04950261
0.04950261
0.04950261
0.04950261
0.04950261
0.04950261
0.04950261
0.04950261
0.04950261
0.04950261
0.04950261
0.04950261
0.04950261
0.04950261
0.04950261
0.04950261
0.04950261
0.04950261
0.04950261
0.04950261
0.04950261
0.04950261
0.04950261
0.04950261
0.04950261
0.04950261
0.04950261
0.04950261
0.04950261
0.04950261
0.04950261
0.04950261
0.04950261
0.04950261
0.04950261
0.04950261
0.04950261
0.04950261
0.04950261
0.04950261
0.04950261
0.04950261
0.04950261
0.04950261
0.04950261
0.04950261
0.04950261
0.04950261
0.04950261
0.04950261
0.04950261
0.04950261
0.04950261
0.04950261
0.04950261
0.04950261
0.04950261
0.04950261
0.04950261
0.04950261
0.04950261
0.04950261
0.04950261
0.04950261
0.04950261
0.04950261
0.04950261
0.04950261
0.04950261
0.04950261
0.04950261
0.04950261
0.04950261
0.04950261
0.04950261
0.04950261
0.04950261
0.04950261
0.04950261
0.04950261
0.04950261
0.04950261
0.04950261
0.04950261
0.04950261
0.04950261
0.04950261
0.04950261
0.04950261
0.04950261
0.04950261
0.04950261
0.04950261
0.04950261
0.04950261
0.04950261
0.04950261
0.04950261
0.04950261
0.04950261
0.04950261
0.04950261
0.04950261
0.04950261
0.04950261
0.04950261
0.04950261
0.04950261
0.04950261
0.04950261
0.04950261
0.04950261
0.04950261
0.04950261
0.04950261
0.04950261
0.04950261
0.04950261
0.04950261
0.04950261
0.04950261
0.04950261
0.04950261
0.04950261
0.04950261
0.04950261
0.04950261
0.04950261
0.04950261
0.04950261
0.04950261
0.04950261
0.04950261
0.04950261
0.04950261
0.04950261
0.04950261
0.04950261
0.04950261
0.04950261
0.04950261
0.04950261
0.04950261
0.04950261
0.04950261
0.04950261
0.04950261
0.04950261
0.04950261
0.04950261
0.04950261
0.04950261
0.04950261
0.04950261
0.04950261
0.04950261
0.04950261
0.04950261
0.04950261
0.04950261
0.04950261
0.04950261
0.04950261
0.04950261
0.04950261
0.04950261
0.04950261
0.04950261
0.04950261
0.04950261
0.04950261
0.04950261
0.04950261
0.04950261
0.04950261
0.04950261
0.04950261
0.04950261
0.04950261
0.04950261
0.04950261
0.04950261
0.04950261
0.04950261
0.04950261
0.04950261
0.04950261
0.04950261
0.04950261
0.04950261
0.04950261
0.04950261
0.04950261
0.04950261
0.04950261
0.04950261
0.04950261
0.04950261
0.04950261
0.04950261
0.04950261
0.04950261
0.04950261
0.04950261
0.04950261
0.04950261
0.04950261
0.04950261
0.04950261
0.04950261
0.04950261
0.04950261
0.04950261
0.04950261
0.04950261
0.04950261
0.04950261
0.04950261
0.04950261
0.04950261
0.04950261
0.04950261
0.04950261
0.04950261
0.04950261
0.04950261
0.04950261
0.04950261
0.04950261
0.04950261
0.04950261
0.04950261
0.04950261
0.04950261
0.04950261
0.04950261
0.04950261
0.04950261
0.04950261
0.04950261
0.04950261
0.04950261
0.04950261
0.04950261
0.04950261
0.04950261
0.04950261
0.04950261
0.04950261
0.04950261
0.04950261
0.04950261
0.04950261
0.04950261
0.04950261
0.04950261
0.04950261
0.04950261
0.04950261
0.04950261
0.04950261
0.04950261
0.04950261
0.04950261
0.04950261
0.04950261
0.04950261
0.04950261
0.04950261
0.04950261
0.04950261
0.04950261
0.04950261
0.04950261
0.04950261
0.04950261
0.04950261
0.04950261
0.04950261
0.04950261
0.04950261
0.04950261
0.04950261
0.04950261
0.04950261
0.04950261
0.04950261
0.04950261
0.04950261
0.04950261
0.04950261
0.04950261
0.04950261
0.04950261
0.04950261
0.04950261
0.04950261
0.04950261
0.04950261
0.04950261
0.04950261
0.04950261
0.04950261
0.04950261
0.04950261
0.04950261
0.04950261
0.04950261
0.04950261
0.04950261
0.04950261
0.04950261
0.04950261
0.04950261
0.04950261
0.04950261
0.04950261
0.04950261
0.04950261
0.04950261
0.04950261
0.04950261
0.04950261
0.04950261
0.04950261
0.04950261
0.04950261
0.04950261