/*--------------------------------*- C++ -*----------------------------------*\
| =========                 |                                                 |
| \\      /  F ield         | OpenFOAM: The Open Source CFD Toolbox           |
|  \\    /   O peration     | Version:  2506                                  |
|   \\  /    A nd           | Website:  www.openfoam.com                      |
|    \\/     M anipulation  |                                                 |
\*---------------------------------------------------------------------------*/
FoamFile
{
    version     2.0;
    format      ascii;
    arch        "LSB;label=32;scalar=64";
    class       volScalarField;
    location    "1500/air";
    object      epsilon;
}
// * * * * * * * * * * * * * * * * * * * * * * * * * * * * * * * * * * * * * //

dimensions      [0 2 -3 0 0 0 0];

internalField   nonuniform List<scalar> 
33752
(
0.0346031
0.03426168
0.03397213
0.03376422
0.03361127
0.03349515
0.03340391
0.03333126
0.03327253
0.03322612
0.03319266
0.03317427
0.03317403
0.03319536
0.03324141
0.03331458
0.03341612
0.03354599
0.03370284
0.03388427
0.03408716
0.03430821
0.03454448
0.03479402
0.03505665
0.03533498
0.03563585
0.03597435
0.03637933
0.03682251
0.03424805
0.03369451
0.03329105
0.03302889
0.03284927
0.0327193
0.03262015
0.03254191
0.03247827
0.03242677
0.03238796
0.03236417
0.03235873
0.03237534
0.03241739
0.0324874
0.03258666
0.03271501
0.0328709
0.03305166
0.03325397
0.03347446
0.03371044
0.03396084
0.03422748
0.03451711
0.03484461
0.03523995
0.03576186
0.03641506
0.03394851
0.03327619
0.03276704
0.03243519
0.03221115
0.03205132
0.03192963
0.03183212
0.03175121
0.03168315
0.03162845
0.03158982
0.03157122
0.03157703
0.03161122
0.03167673
0.03177498
0.03190564
0.03206676
0.03225512
0.03246682
0.03269816
0.03294656
0.03321186
0.033498
0.03381572
0.03418638
0.03464894
0.03527059
0.03603528
0.03372192
0.0329908
0.0324082
0.03201394
0.03174114
0.03154289
0.03138872
0.03126137
0.03115272
0.03105788
0.03097759
0.03091534
0.03087617
0.03086561
0.03088867
0.03094899
0.03104826
0.03118594
0.03135941
0.03156446
0.03179616
0.03204993
0.03232282
0.03261498
0.03293159
0.03328562
0.03370119
0.0342195
0.03490637
0.03572378
0.03354064
0.03277993
0.03214887
0.03170308
0.03138156
0.03113936
0.03094477
0.03077837
0.03063225
0.03050062
0.03038482
0.03028962
0.03022174
0.03018849
0.03019649
0.03025049
0.03035265
0.03050212
0.03069528
0.0309264
0.03118879
0.03147627
0.03178473
0.03211378
0.03246871
0.03286298
0.03332096
0.03388285
0.03461094
0.03545271
0.03338823
0.03261219
0.03194835
0.03146069
0.0310927
0.03080313
0.03056162
0.03034824
0.03015579
0.02997781
0.02981654
0.02967863
0.02957322
0.0295102
0.02949848
0.0295445
0.02965112
0.02981715
0.03003754
0.03030429
0.0306081
0.03094019
0.03129436
0.03166873
0.03206773
0.03250419
0.03300161
0.03359838
0.0343536
0.03520589
0.03325529
0.03247047
0.03178259
0.03125989
0.0308482
0.03050932
0.03021558
0.0299487
0.02970226
0.02946902
0.02925236
0.02906144
0.0289088
0.02880795
0.02877108
0.02880691
0.02891934
0.02910672
0.02936204
0.0296742
0.03003013
0.0304174
0.03082669
0.03125386
0.03170175
0.03218211
0.03271723
0.03334388
0.03411887
0.03497544
0.03313631
0.03234544
0.0316381
0.0310846
0.03063161
0.03024262
0.02989266
0.02956771
0.02926102
0.02896388
0.02868109
0.02842483
0.02821166
0.02806146
0.02799148
0.02801404
0.02813443
0.02835002
0.02865068
0.02902056
0.0294408
0.02989373
0.03036712
0.03085399
0.03135532
0.03188159
0.03245405
0.03310827
0.03389962
0.03475813
0.03302851
0.03223265
0.03150829
0.03092661
0.03043429
0.02999551
0.02958731
0.02920198
0.02882924
0.02845807
0.02809544
0.02776058
0.02747793
0.02727133
0.0271639
0.02717208
0.02730263
0.02755144
0.02790405
0.02833913
0.02883303
0.02936341
0.02991058
0.03046364
0.03102251
0.03159673
0.03220686
0.03288777
0.03369416
0.0345541
0.0329312
0.03213073
0.03139091
0.03078307
0.03025348
0.02976644
0.02930043
0.02885393
0.02840865
0.02795523
0.02750632
0.02708434
0.02671959
0.02644579
0.02629372
0.02628531
0.02642908
0.02671923
0.02713505
0.0276473
0.02822412
0.02883637
0.02946103
0.03008532
0.03070491
0.03132838
0.03197626
0.03268335
0.03350426
0.03436592
0.03284504
0.03204034
0.03128651
0.03065473
0.03009061
0.02955836
0.02903742
0.02852989
0.02801076
0.02747239
0.02693026
0.0264123
0.02595766
0.02563482
0.02546535
0.02544869
0.0255906
0.02588999
0.02636335
0.02696223
0.02763002
0.02833022
0.02903609
0.02973081
0.03041011
0.03108222
0.03176682
0.03249908
0.03333396
0.03419781
0.03277137
0.03196334
0.03119733
0.03054459
0.02994994
0.02937744
0.02880695
0.0282428
0.02765224
0.02703053
0.02639536
0.02578068
0.02530688
0.02495618
0.02475266
0.02472134
0.02487274
0.02520002
0.0256796
0.02631843
0.02707942
0.02786815
0.02865282
0.02941556
0.03015104
0.03086741
0.03158563
0.03234086
0.03318863
0.03405503
0.03271423
0.03190248
0.0311265
0.03045672
0.02983715
0.02923155
0.02862021
0.02800706
0.02735429
0.02665889
0.02594047
0.02530375
0.02478155
0.02438156
0.02414377
0.02409843
0.0242582
0.02461513
0.02514099
0.025798
0.02661071
0.0274799
0.0283349
0.02915675
0.02994057
0.03069483
0.03144099
0.03221544
0.03307417
0.03394323
0.03267294
0.03185978
0.03107699
0.03039523
0.02975799
0.0291286
0.028488
0.02783847
0.02713944
0.02638836
0.02561638
0.02496504
0.02439803
0.02395915
0.02369469
0.02363805
0.02380347
0.02418252
0.02474449
0.02544359
0.02626668
0.02719723
0.02810596
0.02897239
0.02979254
0.03057471
0.03134135
0.03212971
0.03299652
0.03386811
0.03265178
0.03183757
0.03105128
0.03036338
0.02971702
0.02907508
0.0284193
0.02775018
0.02702616
0.02624476
0.02545961
0.02478569
0.02419356
0.02373334
0.02345407
0.02339091
0.02355899
0.02394971
0.02453115
0.02525531
0.02608259
0.02704728
0.02798544
0.02887588
0.02971522
0.03051219
0.03128976
0.03208551
0.03295672
0.03383002
0.03265103
0.03183701
0.03105087
0.03036308
0.0297168
0.02907488
0.02841909
0.02774997
0.02702594
0.02624452
0.02545932
0.02478537
0.02419321
0.02373297
0.0234537
0.02339056
0.02355869
0.02394947
0.02453099
0.02525521
0.02608258
0.02704733
0.02798555
0.02887609
0.02971555
0.03051264
0.03129032
0.03208619
0.03295761
0.03383122
0.03267034
0.03185783
0.03107552
0.03039411
0.02975711
0.02912786
0.02848725
0.02783775
0.02713871
0.02638758
0.02561548
0.02496408
0.02439701
0.0239581
0.02369364
0.02363705
0.02380258
0.0241818
0.02474397
0.02544326
0.0262666
0.0271973
0.02810626
0.02897306
0.02979366
0.03057621
0.03134321
0.03213195
0.0329994
0.03387213
0.03270853
0.03189847
0.03112337
0.0304542
0.02983507
0.02922978
0.02861852
0.02800546
0.02735275
0.02665731
0.02593869
0.02530205
0.02477983
0.02437985
0.0241421
0.02409685
0.0242568
0.02461397
0.02514011
0.0257974
0.02661046
0.02747992
0.02833535
0.0291581
0.02994332
0.03069838
0.03144512
0.03222022
0.03307989
0.03395075
0.03276435
0.0319568
0.0311917
0.0305398
0.02994585
0.02937389
0.02880375
0.0282398
0.02764944
0.02702776
0.02639187
0.02577791
0.02530439
0.02495379
0.02475039
0.02471924
0.02487087
0.02519843
0.02567835
0.02631762
0.02707892
0.027868
0.02865318
0.02941692
0.03015389
0.03087117
0.03159013
0.03234612
0.03319493
0.03406317
0.03283317
0.03202965
0.0312771
0.03064653
0.03008347
0.02955212
0.02903187
0.02852487
0.02800618
0.02746821
0.02692631
0.02640874
0.0259544
0.0256317
0.02546244
0.02544602
0.02558822
0.02588796
0.02636181
0.02696104
0.02762919
0.02832978
0.02903615
0.02973154
0.0304116
0.03108445
0.03176978
0.0325028
0.03333859
0.03420358
0.03291334
0.03211451
0.0313764
0.03077021
0.03024216
0.02975652
0.02929169
0.02884612
0.02840176
0.02794908
0.02750086
0.0270795
0.02671526
0.02644189
0.0262902
0.02628214
0.02642627
0.02671679
0.02713299
0.02764563
0.02822287
0.0288356
0.0294608
0.0300857
0.030706
0.03133017
0.03197876
0.03268657
0.03350823
0.03437069
0.03300336
0.03220954
0.03148737
0.03090787
0.0304177
0.02998094
0.02957457
0.02919076
0.0288194
0.02844953
0.02808802
0.02775408
0.02747223
0.0272663
0.02715942
0.02716809
0.02729908
0.02754832
0.02790136
0.02833691
0.02883127
0.02936221
0.02991002
0.0304638
0.0310234
0.03159837
0.03220921
0.0328908
0.03369778
0.03455834
0.03310271
0.03231432
0.03160967
0.03105896
0.0306088
0.03022257
0.02987518
0.02955249
0.02924782
0.02895249
0.0286713
0.02841643
0.02820439
0.0280551
0.02798588
0.02800906
0.02812999
0.0283461
0.02864726
0.02901767
0.02943853
0.02989213
0.03036626
0.03085393
0.03135607
0.03188316
0.03245638
0.03311121
0.03390267
0.0347618
0.03321248
0.03243056
0.03174589
0.03122663
0.03081852
0.03048319
0.03019284
0.02992906
0.02968539
0.0294546
0.02924005
0.02905092
0.02889975
0.02880011
0.0287642
0.02880083
0.02891394
0.02910193
0.02935786
0.02967066
0.03002729
0.03041534
0.03082549
0.03125356
0.03170238
0.03218364
0.03271961
0.03334699
0.03412254
0.03497964
0.03333597
0.03256324
0.03190312
0.03141953
0.03105587
0.03077068
0.03053343
0.03032401
0.03013511
0.02996024
0.02980165
0.02966597
0.02956239
0.02950084
0.02949031
0.02953728
0.0296447
0.02981146
0.03003256
0.03030006
0.03060467
0.03093766
0.0312928
0.03166819
0.03206823
0.0325057
0.03300405
0.03360165
0.03435757
0.03521045
0.03347936
0.03272227
0.03209538
0.03165422
0.03133774
0.03110073
0.03091125
0.03074965
0.03060784
0.03047999
0.03036741
0.03027488
0.03020918
0.03017767
0.03018706
0.03024218
0.03034527
0.03049558
0.03068956
0.03092152
0.03118483
0.03147331
0.03178284
0.03211302
0.03246909
0.03286447
0.03332347
0.03388627
0.03461513
0.03545756
0.03365265
0.03292537
0.03234725
0.03195809
0.03169094
0.0314986
0.03135032
0.03122853
0.03112489
0.03103443
0.03095787
0.0308987
0.03086203
0.03085347
0.03087811
0.03093971
0.03104005
0.03117868
0.03135306
0.03155905
0.03179176
0.03204661
0.03232067
0.03261404
0.03293188
0.0332871
0.03370378
0.03422306
0.03491077
0.03572885
0.03387279
0.03320433
0.0326998
0.03237337
0.03215547
0.03200216
0.03188701
0.03179571
0.0317204
0.03165724
0.03160671
0.03157153
0.03155573
0.03156377
0.03159973
0.03166667
0.0317661
0.03189781
0.03205994
0.03224932
0.0324621
0.0326946
0.03294424
0.03321083
0.03349827
0.03381725
0.03418907
0.03465267
0.03527519
0.03604058
0.03416761
0.03361765
0.03321874
0.03296219
0.03278906
0.03266608
0.03257401
0.03250249
0.03244494
0.03239878
0.03236452
0.03234449
0.03234211
0.03236117
0.03240516
0.03247674
0.0325773
0.0327068
0.03286378
0.03304563
0.03324909
0.03347081
0.03370809
0.03395984
0.03422783
0.03451878
0.03484749
0.03524389
0.0357667
0.03642059
0.03451963
0.03418108
0.03389587
0.03369365
0.0335475
0.03343876
0.03335502
0.0332895
0.03323726
0.03319655
0.03316794
0.03315358
0.03315662
0.03318056
0.0332287
0.03330355
0.03340649
0.03353759
0.03369561
0.03387819
0.03408229
0.03430462
0.03454224
0.03479317
0.03505719
0.03533686
0.03563896
0.03597853
0.03638437
0.03682822
0.01244981
0.01240376
0.01235837
0.01232129
0.01229136
0.01226686
0.01224648
0.01222962
0.01221587
0.01220531
0.01219847
0.01219618
0.01219943
0.01220924
0.01222648
0.01225178
0.0122854
0.01232718
0.01237658
0.01243268
0.01249434
0.01256025
0.0126291
0.01269966
0.01277094
0.01284223
0.01291323
0.01298416
0.01305497
0.01311635
0.01240301
0.01232408
0.01225466
0.01220365
0.01216587
0.01213672
0.01211326
0.01209402
0.01207824
0.01206576
0.01205708
0.01205305
0.01205473
0.0120632
0.0120794
0.01210398
0.01213723
0.01217896
0.01222857
0.01228509
0.0123473
0.01241388
0.01248357
0.01255535
0.01262865
0.01270368
0.0127818
0.01286611
0.0129605
0.01305447
0.01235448
0.01225136
0.01215743
0.0120885
0.01203845
0.01200063
0.01197049
0.01194561
0.01192479
0.01190762
0.01189451
0.01188642
0.01188455
0.01189014
0.01190429
0.01192777
0.01196088
0.01200341
0.01205464
0.01211347
0.01217854
0.01224843
0.01232189
0.01239812
0.01247705
0.01255981
0.01264926
0.01275042
0.01286817
0.01298566
0.01231082
0.0121936
0.01208148
0.01199627
0.01193296
0.01188432
0.01184493
0.01181161
0.011783
0.01175841
0.0117383
0.01172379
0.01171635
0.01171753
0.01172868
0.01175075
0.01178413
0.01182853
0.01188308
0.01194642
0.01201692
0.01209294
0.01217312
0.01225672
0.01234398
0.01243658
0.01253809
0.01265409
0.0127887
0.01291963
0.01227098
0.01214585
0.01202114
0.01192239
0.01184614
0.01178554
0.01173497
0.01169087
0.01165191
0.01161727
0.01158754
0.01156414
0.01154899
0.01154406
0.01155114
0.01157146
0.01160551
0.01165295
0.01171264
0.01178282
0.01186142
0.01194639
0.01203606
0.01212955
0.01222711
0.01233057
0.01244363
0.01257169
0.01271771
0.01285591
0.0122338
0.01210406
0.01197046
0.01186055
0.01177206
0.01169886
0.01163561
0.01157871
0.01152709
0.01147987
0.01143787
0.01140301
0.01137779
0.01136487
0.01136663
0.01138473
0.01141986
0.01147155
0.0115383
0.01161777
0.0117072
0.01180389
0.01190565
0.0120112
0.01212058
0.01223549
0.01235943
0.01249738
0.01265136
0.01279356
0.0121986
0.01206591
0.0119256
0.0118062
0.01170617
0.01162001
0.01154289
0.01147153
0.01140518
0.01134296
0.01128603
0.01123694
0.01119906
0.01117601
0.01117101
0.01118633
0.0112229
0.01128014
0.01135598
0.01144729
0.01155035
0.01166151
0.01177781
0.0118974
0.01201991
0.01214675
0.01228116
0.01242769
0.0125877
0.01273228
0.01216514
0.01203029
0.01188449
0.01175667
0.01164567
0.0115464
0.01145453
0.01136742
0.01128457
0.011205
0.01113034
0.01106399
0.01101048
0.01097477
0.0109613
0.01097317
0.01101166
0.01107594
0.01116321
0.01126918
0.01138878
0.01151714
0.01165033
0.01178577
0.01192261
0.01206192
0.01220666
0.01236111
0.01252619
0.01267244
0.01213354
0.0119969
0.0118463
0.01171078
0.0115893
0.01147698
0.01136989
0.01126623
0.01116532
0.01106608
0.01097077
0.01088418
0.01081248
0.0107621
0.0107389
0.01074689
0.01078771
0.01086025
0.01096089
0.01108385
0.01122257
0.01137075
0.01152305
0.01167595
0.01182814
0.01198041
0.01213551
0.01229754
0.01246724
0.0126149
0.01210423
0.01196599
0.01181105
0.01166843
0.01153702
0.01141203
0.01128976
0.01116919
0.01104898
0.0109283
0.01081041
0.01070141
0.01060975
0.01054452
0.01051201
0.01051625
0.01055907
0.01063928
0.01075384
0.01089558
0.01105558
0.0112253
0.01139802
0.01156947
0.01173766
0.01190312
0.01206851
0.0122379
0.01241198
0.01256097
0.01207785
0.01193818
0.01177935
0.01163026
0.01148969
0.01135281
0.01121599
0.01107875
0.01093902
0.01079629
0.010655
0.01052379
0.01041534
0.01034489
0.01031243
0.01031551
0.01035588
0.01043215
0.01055413
0.01071257
0.01089391
0.01108585
0.01127964
0.0114697
0.01165372
0.01183207
0.01200738
0.01218376
0.01236198
0.01251229
0.0120552
0.01191431
0.01175212
0.01159739
0.01144875
0.01130128
0.01115127
0.01099859
0.01084034
0.01067666
0.0105138
0.01036584
0.01026145
0.01018745
0.01014851
0.01014863
0.01018986
0.01027116
0.01039025
0.01054806
0.01074668
0.01095956
0.01117331
0.01138106
0.01157986
0.01177004
0.01195438
0.01213708
0.01231905
0.01247062
0.01203728
0.01189533
0.01173042
0.01157113
0.01141592
0.01125975
0.01109877
0.01093297
0.01075885
0.0105774
0.01039843
0.01025394
0.01014112
0.01005877
0.01001313
0.01001015
0.01005257
0.01013883
0.01026394
0.01042261
0.01062489
0.01085456
0.01108558
0.01130848
0.01151991
0.01172011
0.01191197
0.01209993
0.01228504
0.01243773
0.01202459
0.01188201
0.01171521
0.01155272
0.01139287
0.01123046
0.01106158
0.01088618
0.01070043
0.0105063
0.01031899
0.01017504
0.01005517
0.009965384
0.009914166
0.009908624
0.009951968
0.01004243
0.01017389
0.01033902
0.01053762
0.01077882
0.01102266
0.01125685
0.01147759
0.0116851
0.01188244
0.0120742
0.0122616
0.01241519
0.01201795
0.01187503
0.01170727
0.01154314
0.01138088
0.01121523
0.01104221
0.01086172
0.01066983
0.01046948
0.01028267
0.01013428
0.01000981
0.009915701
0.009861288
0.009854259
0.009898096
0.009990921
0.0101261
0.01029497
0.01049152
0.01073891
0.01098966
0.01122992
0.01145561
0.01166701
0.01186724
0.01206101
0.01224965
0.01240375
0.01201763
0.01187474
0.01170702
0.01154292
0.01138068
0.01121505
0.01104204
0.01086156
0.01066968
0.01046933
0.01028252
0.01013413
0.01000965
0.009915532
0.009861117
0.009854096
0.009897951
0.009990802
0.01012601
0.01029491
0.01049148
0.01073889
0.01098967
0.01122995
0.01145568
0.0116671
0.01186736
0.01206116
0.01224984
0.012404
0.01202353
0.01188107
0.01171438
0.01155199
0.01139221
0.01122987
0.01106103
0.01088567
0.01069995
0.01050583
0.01031854
0.01017458
0.0100547
0.009964893
0.009913674
0.009908155
0.009951551
0.01004208
0.01017362
0.01033883
0.0105375
0.01077877
0.01102268
0.01125696
0.0114778
0.0116854
0.01188283
0.01207468
0.01226222
0.01241598
0.01203526
0.01189354
0.01172882
0.0115697
0.01141464
0.01125859
0.0110977
0.01093199
0.01075794
0.01057654
0.01039758
0.01025315
0.01014033
0.01005797
0.01001235
0.01000942
0.01005191
0.01013828
0.0102635
0.01042228
0.01062467
0.01085445
0.01108559
0.01130866
0.0115203
0.01172067
0.01191268
0.01210079
0.0122861
0.01243907
0.01205218
0.01191145
0.01174949
0.011595
0.01144659
0.01129932
0.01114949
0.01099697
0.01083886
0.01067527
0.01051244
0.01036461
0.01026032
0.01018636
0.01014747
0.01014766
0.010189
0.01027042
0.01038964
0.01054759
0.01074634
0.01095936
0.01117325
0.01138121
0.01158026
0.01177065
0.01195517
0.01213806
0.01232025
0.01247211
0.01207323
0.01193381
0.0117753
0.01162655
0.01148632
0.01134977
0.01121325
0.01107627
0.01093678
0.01079427
0.01065314
0.01052211
0.0104138
0.01034347
0.01031111
0.0103143
0.01035479
0.0104312
0.01055334
0.01071194
0.01089343
0.01108552
0.01127948
0.01146975
0.01165397
0.01183253
0.01200804
0.01218461
0.01236303
0.01251355
0.01209758
0.01195968
0.01180518
0.01166302
0.0115321
0.0114076
0.01128578
0.01116563
0.0110458
0.01092546
0.01080789
0.01069915
0.01060773
0.01054269
0.01051036
0.01051476
0.01055774
0.01063812
0.01075285
0.01089475
0.01105493
0.01122484
0.01139775
0.01156942
0.01173783
0.0119035
0.0120691
0.01223868
0.01241294
0.01256208
0.01212446
0.01198825
0.01183821
0.01170332
0.0115825
0.01147086
0.01136443
0.01126138
0.01116102
0.01106229
0.01096744
0.01088124
0.01080989
0.01075979
0.01073684
0.01074505
0.01078608
0.01085881
0.01095964
0.01108281
0.01122173
0.01137014
0.01152266
0.01167581
0.01182824
0.01198074
0.01213606
0.01229828
0.01246814
0.01261591
0.01215328
0.01201896
0.01187386
0.01174685
0.01163672
0.01153835
0.01144737
0.0113611
0.01127902
0.01120015
0.0111261
0.0110603
0.01100725
0.01097193
0.01095879
0.01097094
0.01100968
0.0110742
0.0111617
0.01126789
0.01138774
0.01151636
0.01164982
0.01178553
0.01192264
0.01206221
0.01220719
0.01236183
0.01252704
0.01267339
0.01218374
0.01205167
0.01191222
0.01179382
0.01169488
0.01160988
0.0115339
0.01146363
0.01139829
0.01133697
0.01128084
0.01123244
0.01119516
0.0111726
0.01116801
0.01118368
0.01122056
0.01127807
0.01135419
0.01144577
0.0115491
0.01166056
0.01177717
0.01189707
0.01201989
0.01214702
0.01228168
0.01242844
0.01258861
0.0127333
0.01221587
0.01208685
0.01195426
0.01184554
0.01175838
0.01168659
0.01162475
0.0115692
0.01151884
0.01147274
0.01143173
0.01139772
0.01137321
0.01136089
0.01136315
0.01138167
0.01141715
0.01146917
0.01153622
0.011616
0.01170575
0.01180278
0.01190488
0.01201078
0.01212051
0.01223573
0.01235996
0.01249815
0.01265231
0.01279463
0.01225012
0.01212579
0.01200221
0.01190484
0.01183014
0.01177119
0.0117223
0.01167981
0.01164234
0.01160904
0.01158048
0.01155809
0.01154377
0.01153954
0.01154719
0.01156799
0.01160245
0.01165026
0.0117103
0.01178083
0.01185979
0.01194512
0.01203517
0.01212904
0.01222698
0.0123308
0.01244417
0.01257249
0.01271871
0.01285704
0.01228735
0.01217099
0.01206011
0.01197642
0.01191485
0.01186809
0.01183061
0.01179915
0.01177224
0.01174919
0.01173041
0.01171705
0.01171056
0.01171253
0.01172433
0.01174694
0.01178077
0.01182559
0.01188052
0.01194425
0.01201513
0.01209154
0.01217214
0.01225615
0.01234382
0.01243679
0.01253864
0.01265493
0.01278975
0.01292081
0.01232888
0.01222664
0.012134
0.0120667
0.01201856
0.0119828
0.01195477
0.01193193
0.01191302
0.01189754
0.01188592
0.01187909
0.01187827
0.01188473
0.0118996
0.01192367
0.01195728
0.01200026
0.01205191
0.01211115
0.01217663
0.01224694
0.01232084
0.01239751
0.01247687
0.01256003
0.01264983
0.01275129
0.01286927
0.01298689
0.01237589
0.01229779
0.01222966
0.01218034
0.01214458
0.01211763
0.01209644
0.0120794
0.01206566
0.01205501
0.01204793
0.01204526
0.01204808
0.01205748
0.01207445
0.01209967
0.01213346
0.01217567
0.01222572
0.01228267
0.01234532
0.01241235
0.0124825
0.01255473
0.01262848
0.01270393
0.01278242
0.01286704
0.01296166
0.01305576
0.01242184
0.01237651
0.01233237
0.01229701
0.01226915
0.01224694
0.01222894
0.01221439
0.01220277
0.01219413
0.01218897
0.0121881
0.01219254
0.01220333
0.01222139
0.01224735
0.01228153
0.01232382
0.01237367
0.01243023
0.01249234
0.01255871
0.01262803
0.01269906
0.0127708
0.01284252
0.01291391
0.01298515
0.01305618
0.01311768
0.008130488
0.00811843
0.008104255
0.008091263
0.008080127
0.008070832
0.008063235
0.008057293
0.008053012
0.008050525
0.008050104
0.008052115
0.008056971
0.008065074
0.00807676
0.008092239
0.008111562
0.008134594
0.008161019
0.008190357
0.008222005
0.008255281
0.008289466
0.00832385
0.008357762
0.008390584
0.008421732
0.008450534
0.008475761
0.008493685
0.008117516
0.0080988
0.008078041
0.008060267
0.008045932
0.008034481
0.008025339
0.008018194
0.008012906
0.008009526
0.008008289
0.008009559
0.008013764
0.008021331
0.008032616
0.008047848
0.008067081
0.008090176
0.008116798
0.00814645
0.008178513
0.008212301
0.008247126
0.008282353
0.008317464
0.008352114
0.008386151
0.008419445
0.008451016
0.008475486
0.008100936
0.008075671
0.008046931
0.008022393
0.008002917
0.007987603
0.007975441
0.007965793
0.007958341
0.007953009
0.007949986
0.007949646
0.007952455
0.007958896
0.007969379
0.007984174
0.008003351
0.00802676
0.008054034
0.008084628
0.008117883
0.008153094
0.008189598
0.008226855
0.00826454
0.008302619
0.008341356
0.008380977
0.008420164
0.008451019
0.008083688
0.008053697
0.008018193
0.007987031
0.007961842
0.007941749
0.007925517
0.00791227
0.007901575
0.007893246
0.007887449
0.007884592
0.007885225
0.007889926
0.007899207
0.007913407
0.007932628
0.007956702
0.007985202
0.008017502
0.008052856
0.008090496
0.008129744
0.00817011
0.008211399
0.008253778
0.008297715
0.008343454
0.008389024
0.008424453
0.008066445
0.008033324
0.007992681
0.007955783
0.007925012
0.007899744
0.007878735
0.007861002
0.007846096
0.007833766
0.007824192
0.007817866
0.007815475
0.007817764
0.007825398
0.007838835
0.007858226
0.007883376
0.007913763
0.007948619
0.007987047
0.008028147
0.008071153
0.008115547
0.008161161
0.008208221
0.00825721
0.008308195
0.008358566
0.008396984
0.008049385
0.008014191
0.007969708
0.007928002
0.00789202
0.007861452
0.007835187
0.007812255
0.007792278
0.007774987
0.007760619
0.007749813
0.007743469
0.007742583
0.007748059
0.007760533
0.00778023
0.007806913
0.007839913
0.007878244
0.007920766
0.007966357
0.008014074
0.008063282
0.008113745
0.008165642
0.008219361
0.008274741
0.008328685
0.008369047
0.008032627
0.007995983
0.00794854
0.007902765
0.007861963
0.007826096
0.007794247
0.00776555
0.007739745
0.007716573
0.007696371
0.007679999
0.007668668
0.007663741
0.007666471
0.007677745
0.007697894
0.007726617
0.007763027
0.007805821
0.0078535
0.007904612
0.007957946
0.00801267
0.008068411
0.008125237
0.008183408
0.008242563
0.008299281
0.00834098
0.008016339
0.0079786
0.007928754
0.007879443
0.007834161
0.007793064
0.007755421
0.007720525
0.007688228
0.007658282
0.007631174
0.007608073
0.007590631
0.007580721
0.007580067
0.007589891
0.007610656
0.007641968
0.007682647
0.007730948
0.007784883
0.007842547
0.007902367
0.007963251
0.00802465
0.008086503
0.008148952
0.008211489
0.008270507
0.008313216
0.008000776
0.007962142
0.007910253
0.00785779
0.007808327
0.007762126
0.007718602
0.007677216
0.007637857
0.007600294
0.007565234
0.007534298
0.007509755
0.007494108
0.007489614
0.00749782
0.007519314
0.007553625
0.00759928
0.007654009
0.007715205
0.007780382
0.007847482
0.007915091
0.007982468
0.00804944
0.008116058
0.008181738
0.008242787
0.008286338
0.007986271
0.00794687
0.007893192
0.007837892
0.007784545
0.007733453
0.007684107
0.007636103
0.007589276
0.00754346
0.007499697
0.007460205
0.007428121
0.007406738
0.007398611
0.007405271
0.00742728
0.007464348
0.007515043
0.007576678
0.007645849
0.007719228
0.007794162
0.007868877
0.007942424
0.008014529
0.008085206
0.00815385
0.008216759
0.008261066
0.007973216
0.007933149
0.007877905
0.007820077
0.007763196
0.00770755
0.007652637
0.007598126
0.007543755
0.00748948
0.007436851
0.007389111
0.007350756
0.007325664
0.007316009
0.007321861
0.007343026
0.007380733
0.007434658
0.00750229
0.007579296
0.007661064
0.007744033
0.007825917
0.007905568
0.007982655
0.00805719
0.008128596
0.008193213
0.008238213
0.007962029
0.007921402
0.007864827
0.007804827
0.007744864
0.007685172
0.007625206
0.007564656
0.007503146
0.007440887
0.007380283
0.007326508
0.007286689
0.007260832
0.007249338
0.007253966
0.007275411
0.007313295
0.007366021
0.007435985
0.007519192
0.007608688
0.007699273
0.007787953
0.007873311
0.007954976
0.008033002
0.008106878
0.008173012
0.008218637
0.00795314
0.007912061
0.007854426
0.007792686
0.007730226
0.007667214
0.007603026
0.007537341
0.007469718
0.007400767
0.007334286
0.007278898
0.007237391
0.007208439
0.007194476
0.007197888
0.007219707
0.00725919
0.007314333
0.007383566
0.007469808
0.007565369
0.007662457
0.007756984
0.007847223
0.007932756
0.008013696
0.008089617
0.008157008
0.008203159
0.007946868
0.007905489
0.007847122
0.007784166
0.007719943
0.007654557
0.007587314
0.00751787
0.007445772
0.007372073
0.007302057
0.007246583
0.007202328
0.007170547
0.007154393
0.007156786
0.007178978
0.007220042
0.007277431
0.007348508
0.00743476
0.007534282
0.007636117
0.007734979
0.007828818
0.007917182
0.008000237
0.008077634
0.008145936
0.008192481
0.007943503
0.007901973
0.007843236
0.007779661
0.007714532
0.007647914
0.007579072
0.007507644
0.007433195
0.007357128
0.007285775
0.007229674
0.007183818
0.007150366
0.007132933
0.007134739
0.007157161
0.007199181
0.007257973
0.007330534
0.007416425
0.00751797
0.007622336
0.007723524
0.007819286
0.007909156
0.007993333
0.008071512
0.008140301
0.008187061
0.007943167
0.00790165
0.007842934
0.007779382
0.007714276
0.007647681
0.007578861
0.007507454
0.007433024
0.007356972
0.007285632
0.007229539
0.007183689
0.007150241
0.007132813
0.007134628
0.007157062
0.007199099
0.007257908
0.007330487
0.007416395
0.007517955
0.007622337
0.007723539
0.007819318
0.007909202
0.007993393
0.008071588
0.008140392
0.008187168
0.007945819
0.007904483
0.007846176
0.00778329
0.00771914
0.007653827
0.007586653
0.007517275
0.007445237
0.00737159
0.007301615
0.007246172
0.007201938
0.007170173
0.007154038
0.007156458
0.007178688
0.007219798
0.007277238
0.007348364
0.007434668
0.007534236
0.007636116
0.007735024
0.007828911
0.00791732
0.008000418
0.00807786
0.00814621
0.008192799
0.007951263
0.00791026
0.007852729
0.007791111
0.00772878
0.007665898
0.007601836
0.007536272
0.007468759
0.007399903
0.007333502
0.007278185
0.007236727
0.007207816
0.007193893
0.007197356
0.007219238
0.007258794
0.007314015
0.007383328
0.007469647
0.007565281
0.007662444
0.007757051
0.007847373
0.007932981
0.008013991
0.008089982
0.008157448
0.008203669
0.007959182
0.007918644
0.007862213
0.007802391
0.007742624
0.007683135
0.007623368
0.007563008
0.007501674
0.00743957
0.007379096
0.007325443
0.007285724
0.007259947
0.007248527
0.007253233
0.007274767
0.00731275
0.007365579
0.007435647
0.007518953
0.007608547
0.007699232
0.007788018
0.007873484
0.007955246
0.008033363
0.008107327
0.00817355
0.008219251
0.007969145
0.007929202
0.007874157
0.00781658
0.007759979
0.007704624
0.007650003
0.007595772
0.007541661
0.007487624
0.007435202
0.007387647
0.007349451
0.007324492
0.007314953
0.007320919
0.007342201
0.007380035
0.007434084
0.007501839
0.007578968
0.007660857
0.007743948
0.007825956
0.007905729
0.007982931
0.008057571
0.008129075
0.00819378
0.008238847
0.007980724
0.007941488
0.007888078
0.007833116
0.007780151
0.007729463
0.007680522
0.00763291
0.00758645
0.00754097
0.007497508
0.007458281
0.007426425
0.00740524
0.007397286
0.007404104
0.007426265
0.007463482
0.007514325
0.007576105
0.007645421
0.007718947
0.007794026
0.007868885
0.007942571
0.008014807
0.008085603
0.008154352
0.008217348
0.008261712
0.007993515
0.007955093
0.007903551
0.00785153
0.00780257
0.007756906
0.007713922
0.007673063
0.007634199
0.007597089
0.007562436
0.007531857
0.007507625
0.007492246
0.007487984
0.007496398
0.007518081
0.007552572
0.007598402
0.007653303
0.00771467
0.007780018
0.007847289
0.007915064
0.007982602
0.008049721
0.008116472
0.008182264
0.0082434
0.008287005
0.008007169
0.007969693
0.007920283
0.00787153
0.00782689
0.007786479
0.007749534
0.00771532
0.007683662
0.007654301
0.007627718
0.007605078
0.007588036
0.007578469
0.007578111
0.007588194
0.00760919
0.007640716
0.0076816
0.007730102
0.007784235
0.007842096
0.007902113
0.007963188
0.008024769
0.00808679
0.008149386
0.008212044
0.00827115
0.008313911
0.008021425
0.007985098
0.007938185
0.007893094
0.007853082
0.007818067
0.007787086
0.007759237
0.007734229
0.007711785
0.007692235
0.007676433
0.007665594
0.007661088
0.007664178
0.007675763
0.007696188
0.007725162
0.007761808
0.00780483
0.007852736
0.007904073
0.007957629
0.008012569
0.008068515
0.008125529
0.008183865
0.008243153
0.008299969
0.008341724
0.008036125
0.008001301
0.007957443
0.007916549
0.007881511
0.007851963
0.007826742
0.007804832
0.007785814
0.007769398
0.007755809
0.007745684
0.007739925
0.007739536
0.007745436
0.007758273
0.007778288
0.007805258
0.007838526
0.007877114
0.007919889
0.007965731
0.008013696
0.008063145
0.008113836
0.008165941
0.008219841
0.008275368
0.00832942
0.008369843
0.008051214
0.008018512
0.007978583
0.007942619
0.007912941
0.007888857
0.007869063
0.007852519
0.007838729
0.007827416
0.007818745
0.007813206
0.007811488
0.007814348
0.007822465
0.007836314
0.007856064
0.007881535
0.007912219
0.00794736
0.007986066
0.008027442
0.00807072
0.008115378
0.00816124
0.008208528
0.008257714
0.008308859
0.008359346
0.008397829
0.008066694
0.008037161
0.008002445
0.007972324
0.00794836
0.007929599
0.007914737
0.007902832
0.007893396
0.007886213
0.007881432
0.007879458
0.007880844
0.007886183
0.007896001