/*--------------------------------*- C++ -*----------------------------------*\
| =========                 |                                                 |
| \\      /  F ield         | OpenFOAM: The Open Source CFD Toolbox           |
|  \\    /   O peration     | Version:  2506                                  |
|   \\  /    A nd           | Website:  www.openfoam.com                      |
|    \\/     M anipulation  |                                                 |
\*---------------------------------------------------------------------------*/
FoamFile
{
    version     2.0;
    format      ascii;
    arch        "LSB;label=32;scalar=64";
    class       volScalarField;
    location    "1500/air";
    object      nut;
}
// * * * * * * * * * * * * * * * * * * * * * * * * * * * * * * * * * * * * * //

dimensions      [0 2 -1 0 0 0 0];

internalField   nonuniform List<scalar> 
33752
(
0.008055003
0.008027802
0.008003971
0.007985949
0.007971795
0.007960221
0.007950406
0.007941986
0.007934685
0.00792844
0.007923353
0.007919635
0.007917555
0.0079174
0.007919425
0.007923816
0.007930659
0.00793993
0.007951497
0.007965138
0.007980575
0.007997513
0.008015687
0.008034909
0.008055128
0.008076508
0.008099527
0.008125277
0.008155846
0.008188987
0.008027125
0.007983007
0.007949864
0.007927293
0.007910833
0.007898018
0.007887463
0.007878506
0.007870742
0.007864032
0.007858476
0.007854299
0.007851801
0.007851294
0.007853057
0.007857289
0.00786408
0.007873398
0.007885091
0.007898915
0.007914569
0.00793175
0.007950207
0.007969819
0.007990688
0.008013297
0.008038741
0.008069244
0.008109124
0.008158424
0.008003261
0.00794944
0.007907543
0.007879123
0.007858893
0.007843522
0.007831033
0.007820417
0.007811178
0.007803062
0.007796167
0.007790756
0.007787183
0.007785821
0.007787002
0.007790961
0.0077978
0.007807471
0.007819786
0.007834451
0.007851114
0.007869438
0.007889176
0.007910274
0.007933002
0.007958156
0.007987336
0.008023455
0.008071449
0.008129646
0.007984875
0.00792612
0.007878058
0.007844369
0.007820005
0.00780137
0.007786126
0.007772973
0.007761385
0.007751009
0.007741962
0.007734575
0.007729297
0.007726605
0.007726919
0.007730535
0.007737575
0.007747972
0.007761478
0.00777771
0.007796225
0.007816606
0.007838571
0.007862088
0.007887524
0.007915852
0.007948893
0.007989727
0.008043171
0.008105792
0.007969878
0.00790855
0.007856365
0.007818302
0.007789803
0.007767439
0.007748767
0.007732294
0.007717527
0.007704031
0.007691975
0.007681805
0.007674117
0.007669544
0.007668647
0.007671816
0.007679212
0.007690738
0.007706054
0.007724641
0.007745899
0.007769272
0.007794373
0.007821124
0.007849899
0.007881711
0.007918406
0.007962986
0.008019994
0.008084844
0.007957039
0.007894307
0.007839293
0.007797664
0.007765216
0.007738826
0.007716164
0.007695682
0.007676961
0.007659502
0.007643556
0.007629734
0.007618848
0.00761176
0.007609236
0.007611811
0.007619708
0.007632789
0.007650581
0.007672362
0.007697296
0.007724599
0.007753701
0.007784397
0.00781699
0.007852451
0.007892557
0.007940181
0.007999634
0.008065627
0.007945666
0.007882076
0.007824965
0.007780342
0.007744176
0.007713587
0.007686465
0.007661392
0.007638024
0.007615795
0.007595054
0.007576637
0.007561663
0.007551322
0.007546673
0.00754846
0.00755699
0.007572075
0.007593058
0.007618926
0.007648504
0.007680679
0.007714612
0.007749906
0.007786737
0.007825993
0.007869372
0.007919635
0.00798094
0.008047577
0.00793536
0.007871148
0.007812329
0.007765069
0.007725385
0.00769052
0.007658572
0.007628479
0.007599881
0.00757208
0.007545548
0.007521409
0.007501111
0.007486439
0.007478925
0.007479643
0.007489021
0.007506771
0.007531929
0.007563032
0.007598362
0.007636373
0.007675955
0.007716468
0.007757942
0.007801176
0.007847804
0.007900516
0.007963393
0.008030474
0.007925941
0.007861204
0.007800885
0.007751212
0.007708175
0.007669047
0.00763207
0.007596721
0.007562347
0.007528037
0.007494418
0.007463197
0.007436632
0.007416874
0.007406019
0.007405544
0.007416012
0.007436972
0.007467021
0.007504162
0.007546251
0.007591218
0.007637342
0.007683668
0.007730159
0.007777559
0.007827467
0.007882554
0.007946887
0.008014356
0.007917389
0.007852172
0.007790489
0.007738576
0.007692356
0.007649082
0.007607083
0.007566378
0.007525617
0.007483953
0.00744253
0.007403357
0.00736921
0.007343214
0.007328239
0.007326336
0.007338242
0.007363298
0.007399423
0.007443839
0.007493585
0.007546015
0.007599101
0.007651743
0.00770355
0.007755237
0.007808438
0.007865852
0.007931583
0.007999441
0.007909806
0.007844149
0.00778123
0.007727266
0.007678092
0.007630922
0.007584122
0.007538049
0.00749071
0.007441373
0.007391368
0.007343205
0.007300473
0.007269612
0.007252944
0.007250346
0.007262284
0.007288564
0.007330673
0.007383461
0.00744178
0.007502334
0.007562777
0.007621692
0.007678768
0.007734703
0.007791109
0.007850755
0.007917821
0.007986079
0.007903345
0.007837335
0.007773343
0.007717579
0.007665788
0.007615136
0.007563982
0.007512899
0.007459147
0.007402167
0.007343436
0.007285973
0.007241093
0.007207589
0.00718768
0.007183777
0.007196815
0.007225987
0.007268861
0.007326052
0.007393357
0.007462196
0.007529851
0.007594878
0.007656918
0.007716733
0.007776077
0.007837759
0.007906043
0.007974695
0.007898389
0.00783201
0.007767135
0.007709904
0.007655968
0.007602445
0.007547685
0.007492242
0.007432846
0.007369022
0.007302324
0.00724243
0.007192912
0.007154548
0.007131285
0.007126098
0.007140137
0.007172432
0.007220016
0.007279078
0.007351795
0.00742827
0.007502418
0.007572787
0.007639122
0.007702258
0.007764044
0.007827424
0.007896734
0.007965746
0.007894937
0.007828392
0.007762909
0.007704638
0.007649166
0.007593569
0.007536208
0.00747751
0.007413877
0.007344829
0.007272843
0.007211495
0.00715752
0.007115255
0.007089337
0.007083094
0.007097837
0.00713251
0.007183819
0.007247087
0.007321066
0.007403438
0.007482581
0.007556995
0.007626565
0.007692151
0.00775572
0.007820323
0.00789038
0.007959695
0.007893392
0.007826731
0.007760925
0.007702108
0.007645832
0.007589134
0.007530375
0.007469904
0.007403957
0.007332026
0.007258705
0.007195121
0.007138626
0.007094201
0.007066791
0.007059927
0.007075011
0.007110944
0.007164273
0.007230053
0.007304572
0.007390203
0.007472085
0.007548681
0.007619959
0.007686843
0.007751362
0.00781661
0.00788707
0.007956571
0.007893834
0.007827175
0.007761359
0.007702522
0.007646216
0.007589479
0.007530677
0.00747016
0.00740417
0.007332201
0.007258857
0.00719525
0.007138735
0.007094295
0.00706687
0.007059988
0.007075052
0.00711096
0.007164266
0.007230025
0.007304526
0.007390148
0.007472028
0.007548626
0.007619907
0.007686792
0.007751312
0.007816563
0.007887035
0.007956557
0.007896278
0.007829747
0.007764235
0.007705901
0.007650339
0.007594626
0.007537131
0.007478295
0.007414529
0.007345363
0.0072733
0.007211878
0.007157841
0.007115526
0.007089558
0.007083261
0.007097941
0.007132543
0.007183787
0.007246998
0.007320922
0.007403273
0.007482413
0.007556838
0.007626422
0.007692013
0.007755587
0.0078202
0.007890294
0.007959687
0.007900663
0.007834352
0.007769429
0.007712086
0.007657991
0.00760427
0.007549278
0.0074936
0.007433969
0.007369929
0.007303042
0.007243053
0.007193428
0.007154968
0.007131615
0.007126332
0.007140267
0.007172455
0.007219939
0.007278918
0.007351553
0.007427996
0.007502145
0.007572553
0.007638964
0.007702121
0.00776391
0.007827305
0.007896662
0.007965798
0.007906908
0.007840834
0.007776732
0.00772079
0.00766876
0.007617817
0.007566331
0.007514898
0.0074608
0.007403486
0.007344395
0.007286779
0.007241786
0.007208136
0.007188086
0.007184042
0.00719694
0.007225976
0.007268725
0.007325784
0.007393016
0.007461819
0.007529463
0.007594516
0.007656618
0.007716441
0.007775782
0.007837474
0.007905803
0.007974575
0.007914641
0.007848934
0.007785861
0.007731644
0.007682136
0.007634566
0.007587318
0.007540777
0.007492968
0.007443188
0.007392777
0.007344292
0.007301305
0.007270278
0.007253409
0.007250625
0.00726239
0.007288513
0.007330435
0.007383113
0.00744136
0.007501865
0.00756227
0.007621157
0.007678205
0.007734111
0.007790496
0.00785014
0.007917231
0.007985552
0.007923706
0.007858424
0.007796527
0.00774427
0.007697602
0.007653804
0.007611225
0.007569918
0.007528562
0.007486328
0.007444389
0.007404768
0.007370245
0.007343942
0.007328703
0.007326569
0.007338271
0.007363154
0.007399137
0.007443446
0.007493112
0.007545475
0.007598495
0.007651069
0.007702814
0.007754443
0.007807601
0.007864992
0.007930726
0.007998616
0.00793393
0.007869101
0.007808495
0.007758368
0.00771475
0.007674952
0.007637247
0.007601147
0.007566041
0.007531036
0.007496779
0.007464991
0.007437943
0.007417781
0.007406588
0.007405833
0.007416069
0.007436841
0.007466742
0.007503764
0.007545749
0.007590621
0.00763665
0.007682879
0.007729276
0.007776593
0.007826437
0.00788148
0.007945791
0.008013272
0.007945188
0.007880848
0.007821654
0.007773813
0.007733393
0.00769769
0.007664845
0.007633841
0.007604365
0.007575737
0.007548448
0.007523638
0.007502759
0.007487597
0.007479678
0.007480065
0.007489176
0.007506712
0.007531696
0.007562653
0.007597851
0.007635733
0.007675185
0.00771557
0.007756923
0.007800053
0.007846596
0.007899242
0.007962047
0.008029135
0.007957449
0.007893688
0.007836104
0.007790755
0.00775368
0.007722068
0.007693864
0.007667705
0.007643305
0.007620115
0.007598501
0.007579313
0.007563672
0.00755277
0.007547656
0.007549064
0.007557287
0.007572122
0.007592895
0.007618579
0.007647986
0.007679995
0.007713767
0.007748905
0.007785593
0.007824725
0.007868003
0.007918191
0.007979447
0.008046076
0.007970823
0.007907872
0.007852279
0.007809769
0.007776226
0.007748616
0.007724679
0.007702929
0.007683014
0.007664457
0.007647524
0.007632835
0.007621204
0.00761349
0.007610446
0.007612597
0.007620144
0.007632935
0.00765048
0.00767204
0.007696767
0.007723873
0.007752785
0.007783302
0.007815733
0.007851051
0.00789104
0.007938578
0.007997982
0.008063966
0.007985614
0.007924015
0.007871141
0.00783204
0.007802261
0.007778478
0.007758337
0.007740416
0.007724298
0.007709568
0.007696413
0.007685285
0.00767678
0.007671521
0.007670055
0.007672757
0.007679767
0.007690968
0.007706002
0.007724335
0.007745357
0.007768507
0.007793396
0.007819949
0.007848542
0.007880197
0.00791676
0.007961243
0.008018196
0.008083036
0.008002398
0.007943319
0.007894461
0.007859585
0.007833766
0.007813531
0.007796637
0.007781872
0.007768786
0.007757051
0.007746801
0.007738374
0.007732214
0.007728784
0.007728488
0.0077316
0.007738223
0.007748266
0.007761463
0.007777418
0.007795675
0.007815813
0.007837548
0.00786085
0.00788609
0.007914245
0.007947142
0.007987869
0.008041252
0.008103859
0.008022274
0.007968074
0.007925283
0.007895548
0.007873719
0.007856595
0.007842308
0.007829947
0.007819087
0.007809508
0.007801325
0.007794806
0.007790296
0.007788155
0.007788692
0.007792121
0.007798519
0.007807815
0.007819804
0.007834175
0.007850566
0.007868632
0.007888128
0.007908999
0.007931518
0.007956486
0.007985511
0.008021514
0.008069441
0.008127622
0.008047195
0.00800264
0.007968523
0.007944543
0.007926383
0.007911713
0.007899257
0.007888466
0.007879
0.007870756
0.007863852
0.00785852
0.007855048
0.007853733
0.00785483
0.007858515
0.007864851
0.007873783
0.007885139
0.00789866
0.007914034
0.00793095
0.007949157
0.007968533
0.007989185
0.0080116
0.008036882
0.008067261
0.008107067
0.008156348
0.008075597
0.008047897
0.008023039
0.008003562
0.007987664
0.007974193
0.007962433
0.007952144
0.007943106
0.007935295
0.007928836
0.00792394
0.00792087
0.007919894
0.007921244
0.00792508
0.007931462
0.007940343
0.00795157
0.007964905
0.007980059
0.007996731
0.008014652
0.008033635
0.008053634
0.008074816
0.008097667
0.008123289
0.008153777
0.008186892
0.07627256
0.07637746
0.07641574
0.07640695
0.07637654
0.07633709
0.07629419
0.07625027
0.07620779
0.07616945
0.07613869
0.07611959
0.07611652
0.07613358
0.07617415
0.07624035
0.07633288
0.07645078
0.0765916
0.07675158
0.07692598
0.07710944
0.07729632
0.07748072
0.0776563
0.07781536
0.07794687
0.07803258
0.07804089
0.07794732
0.07637503
0.07653022
0.07659308
0.07658981
0.07655548
0.07650767
0.07645429
0.07639893
0.07634473
0.076295
0.07625362
0.07622514
0.07621438
0.07622589
0.07626333
0.076329
0.07642358
0.07654592
0.07669324
0.07686132
0.0770449
0.07723811
0.07743477
0.07762847
0.0778122
0.07797715
0.07811016
0.0781889
0.07817418
0.07803611
0.07640116
0.0765835
0.07666452
0.07666442
0.07662231
0.0765599
0.07648797
0.07641177
0.07633549
0.07626371
0.07620135
0.07615403
0.07612763
0.07612762
0.07615835
0.07622248
0.07632064
0.0764513
0.07661093
0.07679433
0.07699514
0.07720638
0.0774208
0.077631
0.07782897
0.07800463
0.078143
0.07821912
0.07819094
0.0780318
0.07637212
0.07656299
0.07664949
0.0766461
0.07659137
0.07650847
0.07641024
0.07630377
0.0761947
0.07608952
0.0759949
0.0759183
0.0758674
0.07584924
0.07586933
0.07593092
0.07603459
0.07617815
0.07635683
0.07656383
0.07679097
0.07702946
0.07727039
0.07750496
0.07772399
0.07791637
0.07806624
0.07814796
0.07811906
0.07795528
0.07631481
0.07650434
0.07658617
0.07657226
0.07649941
0.07638999
0.07625762
0.07611094
0.07595747
0.07580633
0.07566679
0.07554909
0.07546363
0.07541983
0.07542493
0.0754831
0.07559485
0.07575696
0.07596284
0.07620327
0.07646741
0.07674385
0.0770214
0.07728945
0.07753754
0.07775383
0.0779222
0.07801717
0.07799645
0.07783636
0.07624305
0.07642628
0.07649659
0.07646541
0.07636825
0.0762258
0.07605109
0.07585357
0.07564304
0.07543198
0.07523331
0.07506113
0.07492966
0.07485172
0.07483705
0.07489111
0.07501431
0.07520199
0.07544494
0.07573054
0.07604424
0.07637109
0.07669692
0.07700893
0.07729525
0.07754343
0.07773735
0.07785189
0.07784493
0.07769264
0.07616371
0.07633824
0.07639269
0.0763387
0.07621106
0.07602879
0.07580334
0.07554377
0.07526262
0.07497662
0.07470343
0.0744622
0.07427227
0.0741509
0.07411128
0.07416071
0.07429957
0.0745212
0.07481278
0.07515705
0.07553456
0.07592577
0.07631272
0.07667996
0.07701412
0.07730214
0.07752798
0.077667
0.07767732
0.07753484
0.07608068
0.07624537
0.07628139
0.07620051
0.07603701
0.07580843
0.07552408
0.07519125
0.07482603
0.07445039
0.07408763
0.07376306
0.07350232
0.07332809
0.07325813
0.07330243
0.07346152
0.07372623
0.07407882
0.07449598
0.07495208
0.07542198
0.07588292
0.07631641
0.07670739
0.0770423
0.07730533
0.07747244
0.07750223
0.07737056
0.07599695
0.07615139
0.07616767
0.07605738
0.07585412
0.07557395
0.07522363
0.07480772
0.07434734
0.07387026
0.07340546
0.07298373
0.07263686
0.07239533
0.07228507
0.07232177
0.07250698
0.07282791
0.07325819
0.07376566
0.07431624
0.07487787
0.07542382
0.07593271
0.07638771
0.07677485
0.07707877
0.0772763
0.07732675
0.07720626
0.07591561
0.07605991
0.07605625
0.07591569
0.07567084
0.07533602
0.07491516
0.07441012
0.07384846
0.0732618
0.07268309
0.07214905
0.07169712
0.07136297
0.07119156
0.07121488
0.07143723
0.07184039
0.07237222
0.07298882
0.07364886
0.07431488
0.07495535
0.07554576
0.07606894
0.07651109
0.07685761
0.07708637
0.0771577
0.07704828
0.07584018
0.07597492
0.07595221
0.07578232
0.0754966
0.07510734
0.0746155
0.07402117
0.07335727
0.07265791
0.0719585
0.07129453
0.07069015
0.07015496
0.06982735
0.06981191
0.07011252
0.07071895
0.07143294
0.07219965
0.07298526
0.07376218
0.07450029
0.07517435
0.07576644
0.07626326
0.07665159
0.0769107
0.07700203
0.07690303
0.0757746
0.07590074
0.07586098
0.07566457
0.0753415
0.07490194
0.07434395
0.07366652
0.07290705
0.07209929
0.07127323
0.07043278
0.06949772
0.06878371
0.06837802
0.0683414
0.0686869
0.06938338
0.07034106
0.07141547
0.07236352
0.07325545
0.07408763
0.07484029
0.07549653
0.07604407
0.07647074
0.07675737
0.07686667
0.07677689
0.07572221
0.07584161
0.07578792
0.07556963
0.07521551
0.07473383
0.07412
0.07337289
0.07253196
0.07162672
0.0706624
0.06950583
0.06841781
0.06758215
0.06710674
0.06705327
0.06743625
0.0682212
0.06932483
0.07062147
0.07182081
0.07283072
0.07374638
0.07456594
0.0752761
0.07586595
0.0763246
0.07663403
0.07675806
0.07667572
0.07568723
0.07580152
0.07573783
0.07550387
0.07512743
0.07461539
0.07396104
0.07316361
0.0722626
0.07127986
0.07017826
0.06882435
0.06761665
0.06669536
0.06616926
0.06610379
0.06651464
0.06736449
0.06856477
0.06998083
0.07141656
0.07252403
0.07350247
0.07437073
0.0751196
0.07573978
0.0762213
0.07654702
0.07668153
0.07660432
0.07567159
0.07578327
0.07571432
0.07547206
0.07508381
0.07455576
0.07387989
0.07305592
0.07212228
0.07109193
0.06986879
0.068457
0.06719098
0.06622508
0.06567217
0.06560042
0.06602627
0.06691071
0.06816179
0.06964462
0.07120372
0.07236366
0.0733754
0.07426924
0.07503842
0.07567442
0.07616784
0.07650203
0.07664195
0.07656731
0.07567688
0.07578845
0.07571931
0.07547678
0.07508818
0.07455973
0.07388343
0.07305897
0.07212485
0.07109404
0.06987048
0.06845839
0.06719215
0.0662261
0.06567303
0.06560108
0.06602669
0.06691085
0.06816166
0.06964429
0.07120325
0.07236313
0.07337484
0.07426866
0.07503781
0.07567379
0.07616719
0.07650136
0.07664123
0.07656651
0.0757033
0.07581721
0.07575293
0.07551813
0.07514063
0.07462736
0.07397168
0.07317281
0.07227033
0.07128619
0.07018329
0.06882842
0.06762004
0.06669822
0.06617161
0.06610554
0.06651567
0.06736474
0.06856432
0.06997984
0.07141517
0.07252244
0.07350079
0.07436895
0.07511771
0.0757378
0.07621925
0.07654489
0.07667924
0.07660174
0.07574962
0.07586822
0.07581349
0.07559377
0.07523783
0.07475403
0.0741379
0.07338834
0.07254495
0.07163734
0.07067093
0.06951242
0.06842308
0.06758641
0.06711006
0.06705557
0.06743742
0.06822124
0.06932388
0.07061982
0.07181852
0.07282811
0.07374357
0.07456284
0.0752726
0.07586222
0.07632072
0.07663
0.0767538
0.07667097
0.07581322
0.07593875
0.07589758
0.07569908
0.07537335
0.07493071
0.07436937
0.07368845
0.07292547
0.07211436
0.07128545
0.07044211
0.06950469
0.068789
0.06838183
0.06834376
0.06868782
0.06938295
0.07033956
0.07141293
0.07236034
0.07325187
0.07408374
0.07483602
0.07549177
0.07603899
0.07646542
0.07675184
0.07686087
0.0767706
0.07589146
0.07602524
0.07600059
0.07582786
0.07553854
0.07514513
0.07464881
0.07404984
0.07338134
0.07267755
0.07197409
0.07130648
0.070699
0.0701613
0.06983153
0.06981419
0.07011309
0.07071812
0.07143071
0.07219642
0.07298131
0.0737577
0.07449539
0.07516906
0.07576076
0.07625722
0.07664524
0.07690407
0.07699514
0.07689585
0.07598042
0.07612343
0.07611723
0.07597297
0.07572347
0.07538332
0.07495675
0.07444588
0.07387843
0.07328626
0.07270247
0.07216388
0.071708
0.07137053
0.07119632
0.07121727
0.07143762
0.07183912
0.07236958
0.07298509
0.07364428
0.07430961
0.07494948
0.07553936
0.07606201
0.07650369
0.07684979
0.07707823
0.07714931
0.07703969
0.07607617
0.07622898
0.07624205
0.0761271
0.07591801
0.07563122
0.07527386
0.07485082
0.07438348
0.07389975
0.07342885
0.07300168
0.07265008
0.07240451
0.07229087
0.07232477
0.07250767
0.0728267
0.07325545
0.07376166
0.07431122
0.07487195
0.07541708
0.07592521
0.07637951
0.07676602
0.07706941
0.07726654
0.07731674
0.0771961
0.07617504
0.07633774
0.07636981
0.07628322
0.07611262
0.07587605
0.07558324
0.0752419
0.07486847
0.07448508
0.07411523
0.07378432
0.07351809
0.07333918
0.07326532
0.0733064
0.07346286
0.07372541
0.07407624
0.07449192
0.07494674
0.0754155
0.07587539
0.0763079
0.07669799
0.0770321
0.07729448
0.07746112
0.07749073
0.0773589
0.07627363
0.07644578
0.0764955
0.07643469
0.07629861
0.07610689
0.07587152
0.07560202
0.07531137
0.07501649
0.07473523
0.07448685
0.07429072
0.07416408
0.07412008
0.07416589
0.07430177
0.07452096
0.07481051
0.07515306
0.07552904
0.07591886
0.07630453
0.07667058
0.07700364
0.0772907
0.07751574
0.07765417
0.07766415
0.0775215
0.07636843
0.07654891
0.0766137
0.07657456
0.0764676
0.07631423
0.07612811
0.07591923
0.0756979
0.07547684
0.07526916
0.07508903
0.07495073
0.07486699
0.07484749
0.07489755
0.07501747
0.07520243
0.07544309
0.0757267
0.07603863
0.07636386
0.07668818
0.07699879
0.07728383
0.07753089
0.07772387
0.07783771
0.07783032
0.07767781
0.07645492
0.07664133
0.07671688
0.0766939
0.07660993
0.07648816
0.07634292
0.07618351
0.07601801
0.07585581
0.07570637
0.07558
0.07548709
0.07543701
0.07543689
0.07549075
0.07559893
0.07575806
0.07596141
0.07619962
0.07646178
0.07673638
0.07701223
0.07727869
0.07752534
0.07774035
0.07790766
0.07800183
0.07798059
0.07782025
0.07652542
0.07671284
0.07679235
0.07677888
0.07671182
0.07661526
0.07650285
0.07638241
0.07626021
0.07614302
0.07603769
0.07595177
0.07589292
0.07586807
0.0758826
0.0759396
0.07603947
0.07617983
0.07635578
0.07656038
0.07678535
0.07702183
0.0772609
0.07749373
0.07771117
0.07790215
0.07805084
0.07813167
0.07810219
0.07793812
0.07656522
0.07674382
0.07681724
0.07680623
0.07675078
0.07667364
0.07658644
0.07649528
0.07640497
0.07632041
0.0762467
0.07618954
0.07615476
0.07614774
0.07617264
0.07623197
0.07632614
0.07645345
0.07661019
0.07679105
0.07698956
0.07719866
0.07741109
0.07761944
0.07781572
0.07798988
0.07812698
0.07820213
0.07817331
0.07801383
0.07654659
0.0766978
0.07675262
0.07673783
0.07668947
0.07662618
0.07655679
0.07648579
0.07641693
0.07635388
0.07630071
0.07626202
0.07624261
0.07624688
0.07627832
0.07633904
0.0764295
0.07654838
0.07669272
0.07685816
0.07703935
0.07723035
0.07742495
0.07761673
0.0777987
0.07796209
0.07809378
0.07817148
0.07815607
0.07801763
0.07644786
0.0765486
0.0765786
0.07655799
0.07651322
0.07645793
0.07639865
0.07633877
0.07628132
0.07622939
0.07618662
0.07615714
0.07614527
0.07615499
0.07618946
0.07625064
0.07633899
0.07645338
0.07659118
0.07674848
0.07692045
0.07710167
0.07728645
0.0774689
0.0776427
0.07780017
0.07793033
0.07801499
0.07802256
0.07792859
0.1633189
0.163419
0.1634787
0.1634834
0.1634485
0.1633871
0.1633067
0.1632128
0.1631123
0.1630142
0.1629301
0.1628734
0.1628586
0.1628988
0.1630048
0.1631837
0.1634378
0.1637645
0.1641564
0.1646021
0.1650869
0.1655945
0.1661076
0.1666086
0.1670794
0.1675005
0.1678486
0.1680953
0.1682102
0.1681961
0.1633922
0.1635381
0.163628
0.1636397
0.1635949
0.1635126
0.1634046
0.1632791
0.1631448
0.1630127
0.162896
0.1628101
0.1627709
0.1627932
0.1628889
0.1630657
0.163326
0.1636664
0.1640787
0.1645499
0.1650636
0.1656018
0.1661453
0.1666748
0.1671704
0.1676101
0.1679669
0.1682068
0.1682936
0.1682367
0.1634022
0.1635793
0.1636905
0.1636997
0.1636301
0.1635062
0.1633447
0.1631577
0.1629572
0.1627577
0.1625761
0.1624313
0.162343
0.162329
0.1624035
0.1625753
0.1628471
0.1632143
0.1636664
0.1641873
0.1647572
0.1653543
0.165956
0.1665396
0.1670823
0.1675586
0.1679374
0.1681802
0.168249
0.1681642
0.1633384
0.163524
0.163634
0.1636215
0.1635081
0.1633204
0.1630791
0.1628001
0.1625
0.1621982
0.1619174
0.1616822
0.1615179
0.1614475
0.1614888
0.1616529
0.1619422
0.1623505
0.1628636
0.1634606
0.1641159
0.164802
0.1654908
0.1661553
0.1667686
0.1673019
0.1677213
0.1679861
0.1680587
0.1679676
0.1632202
0.1633975
0.1634849
0.1634301
0.163252
0.1629775
0.1626291
0.1622264
0.1617912
0.1613496
0.1609319
0.1605712
0.1603012
0.1601521
0.1601473
0.1603007
0.1606149
0.161081
0.1616796
0.1623826
0.1631563
0.163965
0.1647732
0.1655478
0.1662576
0.1668707
0.1673515
0.1676584
0.167755
0.1676736
0.1630643
0.1632223
0.1632707
0.163155
0.162892
0.1625075
0.1620244
0.1614649
0.1608569
0.160235
0.1596394
0.1591147
0.158706
0.1584534
0.1583881
0.158528
0.158876
0.1594195
0.160132
0.1609754
0.1619049
0.1628737
0.1638367
0.1647535
0.1655877
0.1663045
0.1668673
0.1672345
0.1673709
0.1673096
0.1628819
0.1630139
0.1630116
0.1628197
0.1624535
0.1619369
0.1612919
0.1605424
0.1597232
0.1588786
0.1580618
0.1573319
0.1567487
0.1563658
0.1562244
0.1563481
0.1567403
0.1573837
0.158242
0.1592641
0.1603904
0.1615599
0.1627155
0.1638077
0.1647945
0.1656385
0.1663023
0.1667452
0.1669327
0.1668983
0.1626816
0.1627835
0.1627226
0.1624431
0.1619586
0.1612905
0.1604593
0.1594887
0.1584215
0.1573134
0.1562326
0.1552558
0.1544612
0.1539194
0.1536848
0.1537892
0.1542371
0.155005
0.1560437
0.1572851
0.1586508
0.1600621
0.1614473
0.1627467
0.1639124
0.1649046
0.1656855
0.166216
0.1664628
0.1664596
0.1624715
0.1625413
0.1624175
0.1620432
0.1614299
0.1605961
0.1595593
0.1583425
0.156997
0.1555907
0.1542079
0.1529446
0.1519001
0.1511665
0.1508174
0.1508975
0.1514143
0.1523353
0.1535926
0.1550955
0.156742
0.1584325
0.1600798
0.1616131
0.1629788
0.164135
0.1650447
0.1656707
0.1659819
0.1660123
0.162261
0.1622986
0.1621108
0.1616396
0.1608933
0.159887
0.1586341
0.1571568
0.1555145
0.1537864
0.1520719
0.1504861
0.1491498
0.148181
0.1476838
0.1477298
0.1483352
0.149449
0.1509712
0.1527785
0.154742
0.1567416
0.1586741
0.1604586
0.1620365
0.1633651
0.1644092
0.165134
0.1655112
0.1655758
0.1620613
0.1620681
0.161819
0.1612541
0.1603783
0.1592024
0.1577357
0.1559985
0.1540578
0.1520008
0.1499382
0.1479959
0.1463071
0.1450289
0.1443155
0.1443039
0.1450416
0.1464179
0.1482787
0.1504444
0.152756
0.1550804
0.1573055
0.1593442
0.1611345
0.162634
0.16381
0.1646313
0.1650724
0.1651699
0.1618844
0.1618637
0.1615597
0.1609101
0.1599167
0.1585857
0.156922
0.1549443
0.1527243
0.150353
0.1479411
0.1456022
0.1434527
0.1418015
0.1408929
0.1408387
0.1416678
0.1433096
0.1456179
0.1482209
0.1509079
0.1535557
0.156061
0.1583381
0.1603256
0.1619826
0.1632795
0.1641885
0.1646874
0.1648145
0.1617422
0.1616991
0.16135
0.1606308
0.1595401
0.15808
0.1562516
0.1540719
0.1516146
0.1489682
0.1462269
0.1434506
0.140919
0.1390136
0.1379522
0.137861
0.1387697
0.1406051
0.1431931
0.1462584
0.1493338
0.1522799
0.1550291
0.1575091
0.1596624
0.1614511
0.1628485
0.1638302
0.1643767
0.1645279
0.1616459
0.1615867
0.1612055
0.1604364
0.1592759
0.1577231
0.1557759
0.1534502
0.1508193
0.1479655
0.1449608
0.1418312
0.1390605
0.1369736
0.1358033
0.1356853
0.1366517
0.1386246
0.1414176
0.1447489
0.1481768
0.1513591
0.1542901
0.1569179
0.1591909
0.1610742
0.1625436
0.1635773
0.1641577
0.164326
0.1616033
0.1615357
0.1611374
0.1603421
0.1591447
0.157543
0.155533
0.1531302
0.1504067
0.1474388
0.1442808
0.14098
0.1380809
0.1358984
0.1346705
0.1345383
0.135535
0.1375799
0.1404794
0.143939
0.147565
0.1508763
0.1539042
0.1566097
0.1589454
0.1608781
0.1623851
0.1634458
0.1640438
0.1642209
0.161619
0.161551
0.1611522
0.160356
0.1591575
0.1575546
0.1555433
0.1531391
0.1504142
0.147445
0.1442857
0.1409838
0.1380838
0.1359006
0.1346722
0.1345394
0.1355356
0.1375799
0.140479
0.1439382
0.1475639
0.1508749
0.1539027
0.156608
0.1589437
0.1608763
0.1623832
0.1634438
0.1640417
0.1642187
0.1616932
0.1616331
0.16125
0.1604784
0.1593146
0.1577582
0.1558069
0.153477
0.1508419
0.147984
0.1449755
0.1418427
0.1390693
0.1369803
0.1358081
0.1356885
0.1366532
0.1386246
0.1414163
0.1447465
0.1481734
0.1513551
0.1542857
0.156913
0.1591857
0.1610687
0.1625378
0.1635712
0.1641514
0.1643193
0.1618222
0.1617774
0.1614253
0.1607017
0.1596054
0.158139
0.1563037
0.1541168
0.1516524
0.1489992
0.1462516
0.1434697
0.1409335
0.1390244
0.1379598
0.1378657
0.1387717
0.1406047
0.1431907
0.1462542
0.1493281
0.1522732
0.1550217
0.1575009
0.1596535
0.1614416
0.1628385
0.1638198
0.1643658
0.1645164
0.1619983
0.1619754
0.161667
0.1610111
0.1600098
0.1586696
0.156996
0.155008
0.1527778
0.1503969
0.1479762
0.1456293
0.143473
0.1418162
0.1409029
0.1408447
0.1416701
0.1433087
0.1456142
0.1482149
0.1509001
0.1535465
0.1560506
0.1583267
0.1603132
0.1619694
0.1632656
0.164174
0.1646723
0.1647987
0.1622115
0.1622153
0.1619603
0.1613868
0.1605004
0.1593122
0.1578324
0.1560817
0.1541276
0.1520581
0.1499839
0.1480312
0.1463335
0.1450477
0.1443281
0.1443112
0.1450444
0.1464165
0.1482739
0.1504369
0.1527462
0.1550689
0.1572924
0.1593297
0.1611188
0.1626172
0.1637923
0.1646129
0.1650533
0.1651504
0.1624499
0.1624835
0.1622881
0.1618058
0.1610459
0.160024
0.1587545
0.1572602
0.1556014
0.1538576
0.1521287
0.1505301
0.1491827
0.1482045
0.1476993
0.1477387
0.1483384
0.1494475
0.1509658
0.1527697
0.1547306
0.1567278
0.1586583
0.1604411
0.1620174
0.1633446
0.1643875
0.1651114
0.1654879
0.1655522
0.1627013
0.1627662
0.1626327
0.1622447
0.1616144
0.1607615
0.1597042
0.1584669
0.1571014
0.1556763
0.1542764
0.1529978
0.1519401
0.1511952
0.1508365
0.1509087
0.1514189
0.1523343
0.153587
0.1550859
0.1567291
0.1584168
0.1600615
0.1615926
0.1629563
0.1641107
0.165019
0.1656439
0.1659543
0.1659844
0.1629541
0.1630499
0.1629772
0.1626811
0.1621761
0.161485
0.1606295
0.1596345
0.1585438
0.1574138
0.156313
0.1553185
0.1545086
0.1539537
0.1537081
0.1538033
0.1542435
0.155005
0.1560383
0.1572751
0.1586369
0.1600447
0.1614267
0.1627234
0.1638867
0.1648766
0.1656559
0.1661849
0.1664309
0.1664273
0.1631979
0.1633226
0.1633063
0.1630947
0.1627044
0.1621608
0.1614875
0.1607097
0.1598634
0.1589937
0.1581542
0.1574042
0.1568036
0.156406
0.1562521
0.1563654
0.1567489
0.157385
0.1582371
0.159254
0.1603757
0.1615411
0.162693
0.1637818
0.1647657
0.1656072
0.1662689
0.1667102
0.1668966
0.1668617
0.1634233
0.1635729
0.1636051
0.1634665
0.1631757
0.1627602
0.1622447
0.161653
0.1610145
0.1603642
0.1597432
0.1591962
0.1587682
0.1584993
0.1584202
0.1585485
0.1588869
0.1594224
0.160128
0.1609654
0.1618897
0.1628537
0.1638125
0.1647255
0.1655562
0.1662701
0.1668304
0.1671958
0.1673309
0.167269
0.1636199
0.1637878
0.1638568
0.1637761
0.1635666
0.1632572
0.1628725
0.162434
0.1619648
0.161492
0.1610463
0.1606612
0.1603702
0.1602033
0.1601835
0.1603243
0.1606281
0.1610854
0.1616765
0.1623729
0.1631408
0.1639441
0.1647476
0.1655179
0.1662238
0.1668335
0.1673115
0.1676164
0.1677116
0.1676295
0.1637746
0.1639497
0.1640394
0.1639982
0.16385
0.163624
0.1633429
0.1630247
0.1626877
0.1623521
0.162041
0.1617795
0.1615927
0.1615032
0.1615286
0.1616793
0.1619574
0.1623563
0.1628613
0.1634512
0.1641001
0.1647805
0.1654641
0.1661239
0.1667328
0.1672624
0.1676788
0.1679413
0.1680124
0.1679205
0.1638682
0.164034
0.1641232
0.1641015
0.1639944
0.1638293
0.163625
0.1633961
0.1631562
0.1629207
0.1627071
0.1625346
0.1624224
0.1623883
0.162446
0.1626039
0.1628639
0.1632213
0.1636648
0.1641782
0.1647414
0.1653324
0.1659284
0.166507
0.1670451
0.1675174
0.167893
0.1681333
0.1682003
0.1681147
0.1638795
0.1640134
0.16408
0.1640591
0.1639749
0.1638492
0.1636965
0.1635272
0.1633518
0.1631821
0.1630322
0.1629174
0.1628535
0.1628551
0.1629335
0.1630958
0.163344
0.1636742
0.1640776
0.164541
0.1650477
0.1655795
0.1661172
0.1666414
0.1671323
0.1675678
0.1679211
0.1681583
0.1682434
0.1681856