/*--------------------------------*- C++ -*----------------------------------*\
| =========                 |                                                 |
| \\      /  F ield         | OpenFOAM: The Open Source CFD Toolbox           |
|  \\    /   O peration     | Version:  2506                                  |
|   \\  /    A nd           | Website:  www.openfoam.com                      |
|    \\/     M anipulation  |                                                 |
\*---------------------------------------------------------------------------*/
FoamFile
{
    version     2.0;
    format      ascii;
    arch        "LSB;label=32;scalar=64";
    class       surfaceScalarField;
    location    "1500/air";
    object      phi;
}
// * * * * * * * * * * * * * * * * * * * * * * * * * * * * * * * * * * * * * //

dimensions      [1 0 -1 0 0 0 0];

oriented        oriented;

internalField   nonuniform List<scalar> 
98844
(
-0.003818476
-0.0049648
-0.004554422
-0.002441715
-0.006172362
-0.004154195
-0.001552067
-0.007117695
-0.00382659
-0.0009258949
-0.007779377
-0.003609935
-0.000444699
-0.00822324
-0.003463714
-5.079885e-05
-0.008511337
-0.003362053
0.0002871588
-0.008692037
-0.003289305
0.0005873676
-0.008795043
-0.003236232
0.0008579488
-0.008843565
-0.003196496
0.001103638
-0.008855682
-0.003166275
0.001327549
-0.008845904
-0.003143165
0.001532277
-0.008825874
-0.003125797
0.001720574
-0.008805121
-0.003113644
0.001895741
-0.008790997
-0.003106695
0.002061772
-0.008788597
-0.003105257
0.002223303
-0.008800857
-0.003109848
0.002385434
-0.008828189
-0.003121003
0.002553492
-0.008868436
-0.003139214
0.002732844
-0.008917133
-0.003165016
0.00292882
-0.008967356
-0.003198979
0.003146861
-0.009009764
-0.003241844
0.003392977
-0.009032739
-0.003294821
0.003674678
-0.009021711
-0.003359802
0.004002691
-0.008958174
-0.003439823
0.00439422
-0.008818034
-0.003539944
0.004879434
-0.008568056
-0.003668507
0.005515962
-0.008160537
-0.003839343
0.006422483
-0.007528827
-0.004078087
0.007833515
-0.006596883
-0.004429351
-0.005374061
-0.004855776
-0.005054572
-0.003670358
-0.004162865
-0.003222753
-0.004429101
-0.003575084
-0.002039841
-0.005129471
-0.003171141
-0.001222516
-0.00566993
-0.002926775
-0.000617166
-0.006056906
-0.002771688
-0.0001405162
-0.006318529
-0.002669461
0.0002523082
-0.006484571
-0.002600295
0.0005872022
-0.006577448
-0.002552493
0.0008785952
-0.006617106
-0.002517857
0.001134554
-0.006619744
-0.002491901
0.001360295
-0.006599464
-0.002472185
0.001559987
-0.006568196
-0.002457374
0.001737818
-0.006535994
-0.002446963
0.001898597
-0.006510817
-0.002440963
0.00204797
-0.006498297
-0.002439678
0.002192358
-0.006501659
-0.002443591
0.002338715
-0.006521367
-0.002453184
0.002494224
-0.006555064
-0.002468886
0.002666064
-0.006597824
-0.002491153
0.002861368
-0.006642172
-0.002520492
0.003087506
-0.006678281
-0.002557625
0.003352862
-0.006694293
-0.002603806
0.003668323
-0.006676041
-0.002661134
0.004049956
-0.006606637
-0.002733174
0.004523924
-0.006465827
-0.002826179
0.005135747
-0.006228694
-0.002951189
0.005967827
-0.005865008
-0.003127612
0.007174079
-0.005342907
-0.003392176
0.009045887
-0.004648774
-0.003819921
-0.003874275
-0.004437145
-0.00602994
-0.002853443
-0.003850567
-0.003949348
-0.003323081
-0.003186616
-0.002548408
-0.003808367
-0.002722048
-0.00156149
-0.004213301
-0.002443551
-0.0008304178
-0.004517707
-0.002270276
-0.0002625656
-0.00472757
-0.002158816
0.0001953437
-0.004857662
-0.002084823
0.0005753404
-0.004923163
-0.002034286
0.0008960777
-0.004939747
-0.001998101
0.001168308
-0.004921275
-0.001970704
0.001399289
-0.004881015
-0.001949435
0.001594967
-0.004830967
-0.001932911
0.001761354
-0.004781698
-0.001920687
0.001905299
-0.004741887
-0.00191288
0.002034751
-0.004717851
-0.001909902
0.002158635
-0.004713256
-0.001912291
0.002286494
-0.004728706
-0.001920524
0.00242805
-0.004761664
-0.00193496
0.002592877
-0.004806728
-0.001955927
0.002790331
-0.00485583
-0.0019838
0.003029948
-0.004898679
-0.002019223
0.003322468
-0.00492332
-0.002063498
0.003681767
-0.004916328
-0.002119016
0.004128119
-0.004862942
-0.002190052
0.004693829
-0.004747281
-0.002284259
0.005432991
-0.004552582
-0.002415278
0.006437897
-0.004262915
-0.002607002
0.007867885
-0.003869421
-0.002903479
0.0099976
-0.003387681
-0.003390811
-0.002908451
-0.004083672
-0.006721787
-0.002293361
-0.003643894
-0.004517564
-0.002575616
-0.002951692
-0.002979037
-0.002894393
-0.002452505
-0.001866182
-0.003175732
-0.002150428
-0.001029886
-0.003392428
-0.001961579
-0.0003784057
-0.003539202
-0.001839853
0.0001436953
-0.00362123
-0.001758538
0.000570563
-0.003647801
-0.001702235
0.0009231433
-0.003630948
-0.001661383
0.001213691
-0.003582237
-0.00162959
0.001450859
-0.003514137
-0.001604051
0.001642107
-0.003438771
-0.001583449
0.001795292
-0.003367371
-0.001567517
0.001919568
-0.00330955
-0.001556617
0.002025626
-0.003272523
-0.00155139
0.002125444
-0.003260558
-0.00155252
0.002231721
-0.003274478
-0.00156051
0.002357218
-0.003311547
-0.001575619
0.00251423
-0.003365783
-0.001597962
0.002714431
-0.003428379
-0.001627655
0.002969285
-0.003488412
-0.001665126
0.003291257
-0.003533717
-0.001711579
0.003695996
-0.003551522
-0.001769548
0.004205852
-0.003529014
-0.001843787
0.004855541
-0.003454078
-0.001942896
0.005701293
-0.003316274
-0.002082064
0.006834909
-0.003109192
-0.002287343
0.008407217
-0.00283614
-0.002605594
0.01066754
-0.002521939
-0.003126066
-0.002238492
-0.003845027
-0.007198146
-0.001876032
-0.003503156
-0.004934619
-0.002037405
-0.002801742
-0.003311669
-0.002233456
-0.002283892
-0.002109137
-0.002412091
-0.001966177
-0.001189427
-0.002547604
-0.001764539
-0.0004659165
-0.002630316
-0.001632401
0.0001151318
-0.002660187
-0.001542096
0.0005869726
-0.002642149
-0.001477497
0.0009709098
-0.002585915
-0.001428975
0.001279488
-0.002501213
-0.001389607
0.001521928
-0.002399962
-0.001356619
0.00170672
-0.00229462
-0.001328948
0.001843413
-0.002197333
-0.001306736
0.001943627
-0.002118954
-0.001290815
0.002021204
-0.002067845
-0.001282259
0.00209172
-0.00204905
-0.001282029
0.002171614
-0.002063674
-0.001290702
0.002277173
-0.002108735
-0.001308375
0.002423703
-0.002177516
-0.001334801
0.002625166
-0.002260225
-0.00136962
0.002894555
-0.002345011
-0.001412795
0.00324521
-0.002419177
-0.001465199
0.003693225
-0.002470283
-0.001529259
0.004261042
-0.002486911
-0.001609925
0.004982932
-0.00245967
-0.001716302
0.005913335
-0.002382339
-0.001864343
0.007138947
-0.00225397
-0.002080837
0.008798967
-0.002083063
-0.0024131
0.01112197
-0.001894465
-0.002950479
-0.001739691
-0.003675753
-0.007520834
-0.001545173
-0.003403953
-0.005228549
-0.001627778
-0.002701917
-0.003552224
-0.001735259
-0.002174526
-0.002285022
-0.001832749
-0.001846548
-0.001299335
-0.001898726
-0.001634569
-0.0005146716
-0.001922639
-0.001492345
0.0001190997
-0.001902034
-0.001391929
0.0006327536
-0.001838943
-0.001316865
0.00104635
-0.001741768
-0.001257748
0.001371563
-0.001618991
-0.00120744
0.001617324
-0.001482326
-0.001163402
0.001792578
-0.001344769
-0.00112511
0.001908278
-0.001219605
-0.001093433
0.001978676
-0.001119347
-0.001070009
0.00202119
-0.001053734
-0.001056629
0.002055611
-0.001028738
-0.001054737
0.002102771
-0.001045801
-0.001065037
0.002183039
-0.001101634
-0.001087373
0.002315042
-0.001188622
-0.001120902
0.002514997
-0.001295727
-0.001164457
0.002796962
-0.001409794
-0.001217186
0.003174236
-0.001517159
-0.001279296
0.003662171
-0.001605414
-0.001352809
0.00428175
-0.001663917
-0.001442576
0.005064953
-0.00168501
-0.001557867
0.006062499
-0.001664988
-0.001714901
0.007354673
-0.001605636
-0.001940512
0.009070086
-0.001516906
-0.002281574
0.01142263
-0.00142038
-0.002826636
-0.001350901
-0.003549146
-0.00773466
-0.001271388
-0.003332327
-0.005427153
-0.001302247
-0.002633044
-0.003714605
-0.001346841
-0.002100971
-0.002398637
-0.001382651
-0.001766071
-0.001359359
-0.001392505
-0.001545505
-0.0005220624
-0.001366476
-0.001393465
0.000158977
-0.001301146
-0.001281932
0.0007113742
-0.001197028
-0.001194317
0.001152755
-0.001061541
-0.001121613
0.001492891
-0.0009024423
-0.00105669
0.001739603
-0.0007315509
-0.0009974918
0.001901735
-0.0005625425
-0.0009443632
0.00199126
-0.0004097784
-0.000899357
0.002025234
-0.0002879822
-0.0008653435
0.00202511
-0.0002083742
-0.0008452403
0.002015584
-0.0001779879
-0.0008412289
0.002022648
-0.0001986436
-0.000854226
0.002071405
-0.0002667043
-0.0008836918
0.00218415
-0.0003735092
-0.0009278626
0.002379303
-0.0005065619
-0.0009843226
0.002671531
-0.0006511066
-0.00105092
0.003073139
-0.0007919831
-0.001126789
0.003597819
-0.0009169079
-0.001213191
0.004263894
-0.001015355
-0.001314642
0.005099957
-0.001080739
-0.001440339
0.006152236
-0.001110732
-0.001606539
0.007494735
-0.001108265
-0.001839874
0.009247451
-0.001083011
-0.002186615
0.01161429
-0.00105269
-0.002734532
-0.001039904
-0.003450648
-0.007870742
-0.001038231
-0.00327944
-0.005553544
-0.001035603
-0.002583846
-0.003813994
-0.001036907
-0.002049489
-0.002459032
-0.001028081
-0.001709537
-0.001374515
-0.000995626
-0.001481402
-0.0004907547
-0.0009306981
-0.001319543
0.0002333238
-0.0008294698
-0.00119576
0.0008219984
-0.0006922522
-0.001093456
0.001289578
-0.0005251354
-0.001003991
0.001643046
-0.0003354989
-0.0009204168
0.001888082
-0.0001352673
-0.0008413248
0.002033255
6.051202e-05
-0.0007682325
0.002091718
0.0002365108
-0.0007047571
0.002082719
0.0003766922
-0.0006556797
0.002032026
0.000468228
-0.0006259143
0.001970173
0.0005027888
-0.0006189283
0.001929486
0.0004780556
-0.0006360165
0.001940697
0.0003981093
-0.0006760294
0.002030032
0.0002728479
-0.0007356973
0.002217461
0.0001165007
-0.000810496
0.002517473
-5.495479e-05
-0.0008961683
0.002941338
-0.0002254075
-0.0009904451
0.003500281
-0.0003823828
-0.001093472
0.004208875
-0.0005146261
-0.001209327
0.005091761
-0.0006165669
-0.001347062
0.006190473
-0.0006865271
-0.001522922
0.007573343
-0.0007277707
-0.001763368
0.009353578
-0.0007490439
-0.002114206
0.0117282
-0.000764586
-0.002662728
-0.0007884813
-0.003371446
-0.007951347
-0.0008359432
-0.003239605
-0.005626387
-0.0008129341
-0.002547634
-0.003864818
-0.0007864065
-0.002012074
-0.002476953
-0.0007479201
-0.001668031
-0.001352887
-0.0006868595
-0.001432837
-0.0004271496
-0.0005954916
-0.00126095
0.0003367601
-0.0004696587
-0.001123726
0.0009597604
-0.0003106316
-0.001004626
0.001452275
-0.0001224996
-0.0008951551
0.001818374
8.707822e-05
-0.0007886816
0.002060811
0.0003067451
-0.0006844549
0.002185756
0.0005211554
-0.0005855939
0.00220782
0.0007128867
-0.0004984443
0.002149441
0.000865348
-0.0004302824
0.002041483
0.0009645467
-0.0003883651
0.001920637
0.001001408
-0.0003777771
0.001825698
0.0009733121
-0.0004003223
0.001793285
0.0008845682
-0.0004540507
0.001854091
0.0007457472
-0.0005337092
0.002030474
0.0005722426
-0.0006321292
0.002336809
0.0003811793
-0.0007424744
0.002782535
0.0001890548
-0.0008601926
0.003374146
9.683862e-06
-0.0009836824
0.004122271
-0.0001458659
-0.001116889
0.005047668
-0.00027354
-0.001268429
0.006187255
-0.0003714151
-0.001454703
0.007604391
-0.000442712
-0.001702199
0.009406944
-0.0004950757
-0.002056526
0.01178705
-0.0005398798
-0.002604821
-0.0005855044
-0.003306323
-0.007993247
-0.0006582761
-0.003209167
-0.005661012
-0.000624797
-0.002520377
-0.003880369
-0.0005830259
-0.001984029
-0.002463772
-0.0005281498
-0.001636373
-0.001304448
-0.0004517998
-0.00139439
-0.0003403741
-0.000347285
-0.001212285
0.00046066
-0.000210084
-0.001060614
0.00111628
-4.335766e-05
-0.0009228996
0.001632873
0.0001517075
-0.0007908049
0.002010091
0.0003675138
-0.0006576597
0.002248189
0.0005926116
-0.0005239698
0.002351868
0.0008121282
-0.0003946564
0.002335126
0.001008481
-0.0002788575
0.002223353
0.001165144
-0.0001880279
0.00205302
0.001266532
-0.0001316574
0.001867702
0.001303577
-0.0001168559
0.001713499
0.00127352
-0.0001460087
0.001633733
0.00118061
-0.0002162802
0.001663788
0.001035991
-0.0003203026
0.001828045
0.0008554947
-0.0004475136
0.002140014
0.0006565815
-0.0005873759
0.002605417
0.0004560813
-0.0007324346
0.0032272
0.0002677539
-0.0008798571
0.004012859
0.0001010907
-0.00103262
0.004977456
-3.878955e-05
-0.001199352
0.006153837
-0.0001509226
-0.001396878
0.007601185
-0.0002384429
-0.001651622
0.009423175
-0.0003077241
-0.002009346
0.0118084
-0.0003677757
-0.002557333
-0.0004232972
-0.003252365
-0.008009281
-0.0005007325
-0.003185649
-0.005670057
-0.0004644489
-0.002499577
-0.003872612
-0.0004178963
-0.00196258
-0.002430809
-0.0003583425
-0.001611616
-0.001240179
-0.0002792935
-0.001363142
-0.0002414252
-0.0001751254
-0.001170919
0.0005939008
-4.108194e-05
-0.001004334
0.00127963
0.0001182643
-0.0008473567
0.001818788
0.0003037628
-0.0006912187
0.002207108
0.0005084352
-0.0005292467
0.002440696
0.0007218808
-0.0003628633
0.002522101
0.0009301681
-0.0001994496
0.002466446
0.001117357
-5.322639e-05
0.002299789
0.001264916
6.688109e-05
0.002065517
0.001360537
0.0001402622
0.00181401
0.001395174
0.0001599054
0.001598414
0.001365913
0.0001231988
0.00147027
0.001277081
3.166723e-05
0.001468937
0.001138166
-0.0001008461
0.001620416
0.0009641397
-0.0002601286
0.001937103
0.0007730394
-0.0004331491
0.002421484
0.0005803253
-0.0006086302
0.003072567
0.0003988239
-0.0007821575
0.003892327
0.0002370014
-0.0009556746
0.004892406
9.942818e-05
-0.001138302
0.006101884
-1.321748e-05
-0.001347188
0.007576098
-0.0001033043
-0.001609357
0.009415514
-0.0001765907
-0.001970554
0.01180611
-0.0002398837
-0.002518489
-0.0002956019
-0.00320808
-0.008009595
-0.0003585582
-0.003166694
-0.005664001
-0.0003263715
-0.002483677
-0.00385214
-0.0002836063
-0.001946157
-0.002388857
-0.0002293968
-0.001592234
-0.001171359
-0.0001589805
-0.001337817
-0.0001423648
-6.801422e-05
-0.001136111
0.0007230897
4.878366e-05
-0.0009553261
0.001436073
0.0001851352
-0.0007798605
0.001995748
0.0003438711
-0.0005997885
0.002394022
0.0005189582
-0.0004088024
0.002623268
0.0007017839
-0.0002091547
0.002684628
0.0008811609
-1.235874e-05
0.002589682
0.001040141
0.0001721573
0.002372082
0.001167154
0.0003153574
0.002077628
0.001249416
0.0004055712
0.001763552
0.001278895
0.0004303517
0.001490794
0.001253042
0.0003856249
0.001316081
0.001175268
0.0002765227
0.001283503
0.001054742
0.0001159969
0.001423064
0.0009050513
-8.047724e-05
0.001743937
0.0007389888
-0.0002868263
0.002245701
0.0005721183
-0.0004935622
0.002922871
0.0004148794
-0.0006932301
0.003773256
0.0002742294
-0.0008876173
0.004804759
0.0001538335
-0.001085913
0.00604282
5.436747e-05
-0.001305651
0.00754039
-2.612243e-05
-0.001574756
0.009395208
-9.200646e-05
-0.001939407
0.01179136
-0.0001484221
-0.002487623
-0.0001963277
-0.003172959
-0.008002834
-0.0002299969
-0.003154571
-0.00565159
-0.0002054611
-0.002472161
-0.003828105
-0.000173052
-0.001934044
-0.002347698
-0.0001321753
-0.001577635
-0.001108812
-7.96618e-05
-0.00131821
-5.564599e-05
-1.285472e-05
-0.001108332
0.0008351161
7.356571e-05
-0.00091555
0.001570546
0.0001732898
-0.00072359
0.002147314
0.0002893775
-0.0005222807
0.00255382
0.0004175698
-0.0003051233
0.002780115
0.0005516978
-7.621368e-05
0.00282207
0.0006822165
0.0001569837
0.002695779
0.0007994897
0.0003669389
0.002434114
0.0008928882
0.0005359269
0.002087811
0.0009533648
0.0006423496
0.001719905
0.0009748546
0.0006719423
0.001397727
0.0009553723
0.0006198445
0.00118349
0.0008974613
0.0004920397
0.001125617
0.0008079621
0.0003046496
0.00125338
0.0006966689
8.061453e-05
0.001578172
0.0005741149
-0.0001599223
0.00209441
0.0004508516
-0.000394976
0.002793229
0.0003345211
-0.0006184651
0.003668828
0.0002301527
-0.0008315271
0.004726066
0.0001404107
-0.00104382
0.005987662
6.612348e-05
-0.001273357
0.007504186
5.763583e-06
-0.001548414
0.009371878
-4.353528e-05
-0.001916168
0.01177357
-8.518814e-05
-0.002464931
-0.0001188862
-0.003147367
-0.007994045
-0.0001089557
-0.003144098
-0.00563921
-9.615886e-05
-0.002464143
-0.003807688
-7.874027e-05
-0.00192584
-0.002315289
-5.687404e-05
-0.001567706
-0.001061414
-2.88728e-05
-0.00130467
7.801209e-06
6.66952e-06
-0.001088745
0.0009173454
5.122116e-05
-0.0008872055
0.001669047
0.0001044007
-0.0006828182
0.002258227
0.0001656569
-0.000465465
0.002670913
0.0002333382
-0.0002284603
0.002894401
0.0003046586
2.354609e-05
0.002923127
0.0003730361
0.0002804496
0.002773451
0.0004348832
0.0005142785
0.00247945
0.0004842348
0.00070265
0.002095
0.0005161156
0.0008216956
0.001687477
0.0005272403
0.0008551345
0.001328971
0.0005165175
0.0007973572
0.001085929
0.0004853009
0.0006551987
0.001009526
0.0004372451
0.0004471152
0.001129153
0.0003775721
0.0001994664
0.001456654
0.0003122579
-6.564819e-05
0.001983164
0.0002463515
-0.0003220146
0.002697461
0.0001841739
-0.0005639553
0.003591055
0.0001283613
-0.0007918063
0.00466691
8.035582e-05
-0.001015805
0.005945405
4.053828e-05
-0.001252914
0.007475633
8.156446e-06
-0.001532627
0.009352926
-1.814614e-05
-0.001902687
0.01175986
-4.00885e-05
-0.002452039
-5.745152e-05
-0.003133104
-0.00798812
6.871803e-06
-0.003139256
-0.005631568
7.168214e-06
-0.002459884
-0.003796003
7.190332e-06
-0.001921502
-0.002297372
7.027787e-06
-0.001562539
-0.001035289
6.758228e-06
-0.001297719
4.379664e-05
6.436685e-06
-0.001078859
0.0009610592
6.036377e-06
-0.0008720837
0.001721031
5.586704e-06
-0.0006611637
0.00231667
5.118967e-06
-0.000435107
0.002732916
4.627131e-06
-0.0001875399
0.002953854
4.093975e-06
7.962116e-05
0.002976329
3.480432e-06
0.0003470759
0.002814311
2.817282e-06
0.0005940798
0.002503236
2.136904e-06
0.0007931686
0.002098647
1.463464e-06
0.0009192382
0.001670216
8.13443e-07
0.0009548545
0.00129256
1.914931e-07
0.0008939783
0.00103435
-4.047807e-07
0.0007439127
0.0009481128
-9.886277e-07
0.0005244668
0.001063436
-1.5747e-06
0.0002638197
0.001392448
-2.179165e-06
-1.457945e-05
0.001924391
-2.811693e-06
-0.0002827844
0.002646844
-3.478449e-06
-0.0005348052
0.003549922
-4.164649e-06
-0.0007705563
0.004635504
-4.793112e-06
-0.001000438
0.005922865
-5.242266e-06
-0.001241586
0.007460357
-5.445715e-06
-0.001523895
0.009342794
-5.325919e-06
-0.001895262
0.01175265
-4.85265e-06
-0.002445098
-3.991556e-06
-0.003126051
-0.007987632
0.0001226169
-0.003138788
-0.005631317
0.0001104476
-0.002459601
-0.003795905
9.310681e-05
-0.001921334
-0.002297366
7.09327e-05
-0.00156245
-0.001035321
4.239128e-05
-0.001297683
4.376347e-05
6.174652e-06
-0.001078829
0.0009610289
-3.917742e-05
-0.0008720576
0.001721024
-9.327097e-05
-0.000661143
0.002316688
-0.0001554665
-0.0004350849
0.002732951
-0.0002241241
-0.0001875177
0.00295389
-0.0002964837
7.96339e-05
0.002976396
-0.0003660902
0.0003470605
0.002814442
-0.0004292558
0.0005940228
0.002503456
-0.0004799505
0.0007930694
0.002098966
-0.0005131581
0.0009191085
0.001670626
-0.0005255692
0.0009547189
0.001293035
-0.0005160829
0.0008938624
0.001034856
-0.0004860594
0.0007438295
0.0009486205
-0.0004391711
0.0005244145
0.001063919
-0.0003806646
0.0002637873
0.00139289
-0.0003165421
-1.461215e-05
0.001924785
-0.0002518775
-0.0002828333
0.002647207
-0.000191012
-0.0005348937
0.003550327
-0.0001365792
-0.0007707098
0.004636056
-8.986746e-05
-0.00100066
0.005923622
-5.095187e-05
-0.001241861
0.007461374
-1.8973e-05
-0.00152423
0.009344149
7.54719e-06
-0.001895653
0.01175449
3.045481e-05
-0.002445658
4.973167e-05
-0.003126953
-0.007992402
0.000243379
-0.003142547
-0.005638409
0.0002196978
-0.002463249
-0.003807381
0.0001873731
-0.0019253
-0.002315264
0.0001462143
-0.001567405
-0.001061532
9.317352e-05
-0.00130452
7.647273e-06
2.564963e-05
-0.001088661
0.000917236
-6.163975e-05
-0.0008871325
0.001669015
-0.0001622932
-0.0006827628
0.002258281
-0.0002793374
-0.0004654006
0.002671029
-0.0004084911
-0.0002283866
0.002894494
-0.0005435819
2.362741e-05
0.002923311
-0.0006753491
0.0002804375
0.002773826
-0.0007939213
0.0005141458
0.002480084
-0.0008886114
0.000702399
0.002095917
-0.000950361
0.0008213663
0.001688651
-0.0009730979
0.0008547914
0.001330331
-0.0009548332
0.0007970669
0.001087385
-0.0008981095
0.0006549928
0.001010995
-0.0008097722
0.0004469873
0.001130562
-0.0006996244
0.000199388
0.00145795
-0.0005782069
-6.572759e-05
0.001984316
-0.0004560936
-0.0003221542
0.002698499
-0.0003409663
-0.0005642329
0.003592202
-0.0002379269
-0.0007923601
0.004668537
-0.0001495362
-0.001016671
0.005947663
-7.610932e-05
-0.001253973
0.007478671
-1.611373e-05
-0.001533872
0.00935704
3.331001e-05
-0.001904136
0.01176568
7.582832e-05
-0.002454021
0.0001117066
-0.00313645
-0.007999984
0.0003728737
-0.003150754
-0.005650252
0.0003405004
-0.00247054
-0.003827601
0.0002978027
-0.001933087
-0.00234766
0.0002433386
-0.001577071
-0.001108988
0.0001723882
-0.001317893
-5.58455e-05
8.067617e-05
-0.001108175
0.0008349369
-3.702836e-05
-0.0009153999
0.001570505
-0.0001743866
-0.0007234804
0.002147455
-0.0003341403
-0.0005221526
0.002554112
-0.0005102095
-0.0003049446
0.002780259
-0.0006938799
-7.585447e-05
0.002822378
-0.0008745838
0.0001571103
0.002696413
-0.001034813
0.0003668526
0.002435159
-0.001163025
0.0005356626
0.002089292
-0.001246474
0.0006419761
0.001721778
-0.001277137
0.0006715491
0.001399891
-0.001252463
0.0006195126
0.001185821
-0.00117585
0.000491806
0.001127997
-0.001056455
0.0003045039
0.00125571
-0.0009078506
8.050884e-05
0.001580358
-0.0007428183
-0.0001600413
0.002096365
-0.000576899
-0.0003952058
0.002794908
-0.0004205142
-0.0006189995
0.003670574
-0.0002806005
-0.0008329968
0.004728737
-0.0001608063
-0.001046898
0.005991384
-6.179093e-05
-0.00127697
0.007509152
1.842343e-05
-0.00155231
0.009378659
8.420639e-05
-0.001920407
0.0117836
0.0001407674
-0.002469884
0.0001889849
-0.003154367
-0.008006649
0.0005135594
-0.003165014
-0.0056624
0.0004780741
-0.002481829
-0.003851521
0.0004317585
-0.00194484
-0.002388855
0.0003720349
-0.001591369
-0.001171671
0.0002924739
-0.001337276
-0.0001427608
0.0001875405
-0.00113578
0.0007228016
5.249354e-05
-0.0009550904
0.001436
-0.0001079355
-0.0007796552
0.001996006
-0.0002945859
-0.0005995668
0.002394676
-0.0005004821
-0.000408403
0.002623379
-0.0007153148
-0.0002072727
0.002685073
-0.0009244542
-1.18295e-05
0.002590618
-0.001112592
0.0001722292
0.002373567
-0.001261182
0.0003152033
0.002079662
-0.001357872
0.0004052994
0.001766073
-0.001393606
0.0004300536
0.001493691
-0.001365459
0.0003853744
0.001319222
-0.001277736
0.0002763512
0.001286767
-0.001139878
0.0001158729
0.001426346
-0.0009668495
-8.058449e-05
0.001747148
-0.0007766413
-0.0002869836
0.002248761
-0.0005846609
-0.0004938555
0.002925744
-0.0004036617
-0.00069384
0.003776293
-0.0002419944
-0.0008891595
0.004808837
-0.0001042973
-0.001089058
0.006048065
8.316052e-06
-0.00130934
0.007547049
9.818576e-05
-0.00157875
0.00940385
0.0001712066
-0.001943805
0.01180341
0.0002339627
-0.002492758
0.0002881092
-0.003180103
-0.008005436
0.0006703805
-0.003182361
-0.005668012
0.0006377065
-0.002497062
-0.00387184
0.000596344
-0.001960763
-0.002430848
0.0005413922
-0.001610355
-0.001240645
0.0004645573
-0.001362293
-0.0002420102
0.0003592502
-0.001170351
0.0005934014
0.0002210266
-0.001003951
0.00127941
5.309669e-05
-0.0008470463
0.001818897
-0.0001431545
-0.0006909247
0.00220756
-0.000360217
-0.0005289343
0.002441217
-0.0005865696
-0.0003624075
0.002522994
-0.000807071
-0.0001991658
0.002467855
-0.001004364
-5.309366e-05
0.002301793
-0.001161982
6.685824e-05
0.002068117
-0.001264357
0.0001401568
0.001817149
-0.001302414
0.0001597732
0.001601987
-0.001273381
0.0001230799
0.001474185
-0.00118148
3.154143e-05
0.001473065
-0.001037834
-0.0001009285
0.001624687
-0.0008582204
-0.0002602555
0.001941469
-0.0006600654
-0.0004333623
0.002425928
-0.0004601557
-0.000608969
0.003077156
-0.0002722228
-0.000782671
0.00389732
-0.0001056745
-0.0009564884
0.004898208
3.424674e-05
-0.001139436
0.006108746
0.0001463253
-0.001348552
0.007584206
0.0002336979
-0.001610976
0.009425226
0.0003027056
-0.001972523
0.01181801
0.0003622182
-0.002521039
0.0004167598
-0.003211673
-0.0079884
0.0008470536
-0.003204904
-0.005658478
0.0008249181
-0.002517139
-0.003879435
0.0007989098
-0.001981615
-0.002463864
0.0007604319
-0.001634616
-0.001305097
0.0006989214
-0.001393137
-0.0003412023
0.0006067513
-0.001211402
0.0004599408
0.0004798673
-0.00105999
0.001115851
0.0003196258
-0.0009224453
0.001632869
0.0001302513
-0.0007904297
0.002010517
-8.055511e-05
-0.0006573158
0.002248996
-0.0003014126
-0.0005236419
0.002353176
-0.0005168687
-0.0003943879
0.002337024
-0.0007095556
-0.0002786617
0.002225887
-0.0008629405
-0.0001879092
0.002056185
-0.00096306
-0.0001315998
0.001871447
-0.001000845
-0.000116836
0.001717743
-0.0009736692
-0.0001460122
0.001638388
-0.000885817
-0.0002163124
0.001668776
-0.0007478287
-0.0003203978
0.001833314
-0.0005750669
-0.0004476959
0.002145547
-0.0003846325
-0.0005876712
0.002611219
-0.0001929785
-0.0007328527
0.003233419
-1.404174e-05
-0.0008803857
0.004019571
0.0001414445
-0.001033276
0.004984915
0.0002690252
-0.001200126
0.006162214
0.0003668062
-0.001397784
0.007610642
0.000437957
-0.001652691
0.009433908
0.0004900935
-0.002010658
0.01182064
0.0005345176
-0.002559035
0.0005794376
-0.003254669
-0.0079456
0.001048022
-0.003234408
-0.005623383
0.001046318
-0.002543622
-0.003863725
0.001048233
-0.002008987
-0.002477105
0.001039494
-0.001665688
-0.001353736
0.001006638
-0.001431091
-0.0004282459
0.0009409274
-0.001259672
0.0003357668
0.0008386567
-0.001122808
0.0009591203
0.0007002317
-0.001003965
0.001452142
0.0005318905
-0.0008946669
0.001818807
0.0003410658
-0.0007882918
0.002061862
0.0001396686
-0.0006841417
0.002187439
-5.71264e-05
-0.0005853244
0.002210184
-0.0002340796
-0.0004982267
0.002152498
-0.0003751457
-0.0004301138
0.002045212
-0.0004675334
-0.0003882453
0.001924989
-0.00050292
-0.0003777065
0.001830607
-0.000478982
-0.0004003099
0.001798687
-0.0003997859
-0.0004541162
0.00185994
-0.0002752092
-0.0005338765
0.002036754
-0.0001194667
-0.0006324189
0.002343486
5.151409e-05
-0.0007428824
0.002789682
0.0002215343
-0.0008607139
0.003381748
0.0003781919
-0.0009843037
0.004130481
0.0005102632
-0.001117556
0.005056598
0.0006120612
-0.001269157
0.006197027
0.0006818789
-0.001455506
0.007615128
0.0007229588
-0.001703107
0.009418753
0.0007440475
-0.002057583
0.01179991
0.0007594034
-0.002606046
0.0007826017
-0.003307917
-0.007864121
0.001279533
-0.00327334
-0.005550072
0.001311311
-0.002579047
-0.003812727
0.001356567
-0.002045686
-0.002459226
0.001392533
-0.001706545
-0.001375547
0.001402047
-0.001479094
-0.0004921063
0.001375289
-0.001317808
0.0002320713
0.001308971
-0.001194498
0.0008211518
0.001203707
-0.001092562
0.001289336
0.001067065
-0.001003365
0.001643534
0.0009068385
-0.0009199765
0.001889332
0.0007348742
-0.0008410088
0.002035283
0.0005649117
-0.0007679944
0.002094529
0.0004112531
-0.0007045842
0.002086298
0.0002886389
-0.0006555589
0.002036335
0.0002082728
-0.000625848
0.001975159
0.0001771795
-0.0006189275
0.001935092
0.0001971781
-0.0006360985
0.001946879
0.0002646362
-0.0006762135
0.002036764
0.0003709003
-0.0007359988
0.002224734
0.0005034798
-0.0008109209
0.002525295
0.0006476481
-0.0008966992
0.002949697
0.0007881932
-0.000991065
0.003509187
0.0009128509
-0.001094153
0.004218401
0.001011094
-0.001210049
0.005101986
0.001076298
-0.001347826
0.006201497
0.001106106
-0.001523742
0.007585283
0.001103422
-0.001764253
0.009366545
0.001077885
-0.002115103
0.01174162
0.001047163
-0.002662837
0.001034394
-0.003372196
-0.007727196
0.001551372
-0.003325409
-0.0054232
0.001634812
-0.002627501
-0.003713126
0.001742947
-0.002096459
-0.00239882
0.001840633
-0.001762413
-0.001360514
0.00190634
-0.001542605
-0.0005236055
0.001929616
-0.001391242
0.0001575296
0.001908128
-0.001280298
0.0007103808
0.001844018
-0.001193168
0.001152455
0.001745821
-0.001120836
0.001493429
0.001622049
-0.00105619
0.001741038
0.001484447
-0.0009971875
0.001904095
0.001346041
-0.0009441911
0.001994519
0.001220103
-0.0008992796
0.00202935
0.001119145
-0.0008653421
0.002030029
0.001052901
-0.0008453118
0.002021251
0.001027335
-0.0008413813
0.002029012
0.001043884
-0.0008544714
0.002078426
0.001099258
-0.0008840413
0.002191799
0.001185842
-0.0009283188
0.002387557
0.001292596
-0.0009848781
0.002680388
0.001406368
-0.001051556
0.00308259
0.001513474
-0.001127487
0.003607864
0.001601505
-0.001213933
0.004274563
0.001659813
-0.001315422
0.005111298
0.001680721
-0.001441162
0.006164312
0.001660505
-0.001607417
0.007507617
0.001600935
-0.001840821
0.009261191
0.001511949
-0.002187642
0.0116288
0.001415148
-0.002735598
0.001345583
-0.003451943
-0.007512569
0.001880055
-0.003396379
-0.005224098
0.00204208
-0.002695744
-0.003550469
0.002238697
-0.002169385
-0.002285097
0.002417531
-0.001842275
-0.001300496
0.002552846
-0.001631112
-0.0005162766
0.002635044
-0.001489653
0.0001175888
0.002664188
-0.001389931
0.0006317385
0.002645321
-0.001315458
0.001046102
0.002588264
-0.001256812
0.001372247
0.002502766
-0.001206868
0.001619016
0.002400773
-0.001163099
0.001795295
0.002294756
-0.001125
0.001911992
0.002196863
-0.001093463
0.001983333
0.002117944
-0.001070145
0.002026728
0.002066357
-0.001056856
0.00206197
0.00204714
-0.001055052
0.002109895
0.002061394
-0.00106544
0.002190885
0.00210613
-0.001087866
0.002323575
0.002174628
-0.001121479
0.002524186
0.00225709
-0.001165109
0.002806788
0.002341661
-0.001217899
0.003184679
0.002415635
-0.001280057
0.003673224
0.002466567
-0.00135361
0.00429342
0.002483032
-0.001443419
0.005077263
0.00245563
-0.001558757
0.006075489
0.002378126
-0.001715851
0.007368395
0.002249563
-0.001941538
0.009084606
0.002078436
-0.002282703
0.01143807
0.001889611
-0.002827931
0.001734686
-0.003550701
-0.007189167
0.00229509
-0.003495171
-0.00492966
0.002577702
-0.002795135
-0.003309553
0.002896865
-0.002278281
-0.002108962
0.003178357
-0.001961422
-0.001190412
0.003394919
-0.001760629
-0.0004673781
0.003541327
-0.001629322
0.0001137686
0.003622827
-0.001539792
0.0005861396
0.003648814
-0.00147587
0.0009709003
0.003631394
-0.001427896
0.001280479
0.003582142
-0.001388961
0.001524003
0.003513545
-0.001356302
0.001709896
0.003437734
-0.001328875
0.001847656
0.003365939
-0.001306842
0.001948882
0.00330777
-0.001291057
0.002027402
0.00327044
-0.001282608
0.002098797