/*--------------------------------*- C++ -*----------------------------------*\
| =========                 |                                                 |
| \\      /  F ield         | OpenFOAM: The Open Source CFD Toolbox           |
|  \\    /   O peration     | Version:  2506                                  |
|   \\  /    A nd           | Website:  www.openfoam.com                      |
|    \\/     M anipulation  |                                                 |
\*---------------------------------------------------------------------------*/
FoamFile
{
    version     2.0;
    format      ascii;
    arch        "LSB;label=32;scalar=64";
    class       volScalarField;
    location    "350/airRegion";
    object      alphat;
}
// * * * * * * * * * * * * * * * * * * * * * * * * * * * * * * * * * * * * * //

dimensions      [1 -1 -1 0 0 0 0];

internalField   nonuniform List<scalar> 
85779
(
0.1066849
0.1071219
0.1068973
0.1066372
0.1063533
0.105841
0.1044297
0.0997827
0.08587469
0.07938452
0.07714815
0.0777703
0.0806525
0.08548857
0.09140235
0.09647735
0.09796922
0.09290125
0.0837247
0.07620805
0.0739615
0.07836002
0.09259353
0.1025394
0.105101
0.1056314
0.105203
0.1022595
0.08605706
0.02337739
0.1068068
0.1073912
0.106967
0.1063672
0.1056656
0.1044994
0.1017683
0.09499362
0.08565002
0.08107211
0.07921535
0.07954864
0.08195184
0.08627384
0.09169949
0.09641423
0.09781732
0.09302671
0.08410837
0.07681175
0.07472615
0.07835129
0.0871043
0.09846662
0.1025001
0.1033755
0.1025113
0.09805676
0.07987434
0.0219598
0.1066021
0.1068772
0.1062024
0.1053552
0.1043744
0.1027405
0.09878712
0.09092709
0.08564528
0.08248618
0.08103915
0.08125192
0.0832403
0.08694558
0.09165213
0.0957471
0.09689631
0.09237399
0.08366496
0.07629616
0.07376359
0.07631109
0.08329323
0.09569205
0.1001266
0.1011062
0.1002922
0.09618169
0.0796005
0.02219962
0.1065502
0.1066059
0.1057322
0.1047035
0.1035041
0.1013382
0.09572552
0.0885754
0.08461071
0.0825055
0.08165277
0.08205735
0.08389343
0.08713362
0.0911529
0.09456243
0.09535106
0.09099128
0.08233364
0.07468243
0.07163144
0.07358299
0.08035969
0.09414683
0.09876287
0.09983886
0.09925323
0.09576063
0.08052755
0.02239636
0.1065694
0.1065274
0.1055368
0.1043861
0.1030185
0.1005677
0.09484522
0.08686897
0.08349377
0.08194339
0.08151916
0.08215127
0.08394447
0.08682534
0.0902078
0.09289969
0.093235
0.08894376
0.08028883
0.07241053
0.06914484
0.07110466
0.07835794
0.09332214
0.09810372
0.09929749
0.09893817
0.09591221
0.08147175
0.02253424
0.1066012
0.1065218
0.1054677
0.1042367
0.102733
0.09983988
0.09255685
0.08565904
0.08255108
0.08133521
0.08118429
0.0819504
0.08366408
0.08618053
0.08890889
0.09081644
0.09059581
0.08630912
0.0777172
0.06981562
0.06669657
0.06905205
0.07696716
0.0928499
0.09780331
0.09911637
0.09892823
0.09617057
0.08193881
0.02263164
0.1066263
0.1065322
0.1054406
0.1041481
0.1025098
0.09922255
0.09103016
0.08490551
0.0822778
0.08121498
0.08108631
0.08178702
0.08329183
0.08536257
0.08736056
0.08837901
0.08748805
0.08316118
0.07474848
0.06706447
0.06438446
0.06733023
0.07591198
0.0925366
0.09765988
0.09908125
0.09901605
0.09641929
0.08226507
0.02269806
0.1066419
0.10654
0.1054238
0.1040817
0.1023013
0.09849819
0.0897347
0.0849992
0.08255451
0.08139123
0.08112918
0.08166206
0.08288687
0.08445147
0.08564056
0.08565959
0.08398956
0.0795904
0.07148268
0.0642352
0.06220154
0.06582137
0.07502671
0.09228827
0.09757433
0.09909061
0.09911426
0.0966182
0.08249662
0.02274293
0.1066497
0.1065421
0.105409
0.1040346
0.1021765
0.09813782
0.08880744
0.08446396
0.08229145
0.08124472
0.0809965
0.08144338
0.08242636
0.08348626
0.08382506
0.08276717
0.08024283
0.07575201
0.068048
0.06139718
0.06013363
0.06444739
0.07422507
0.09205923
0.09750204
0.09910232
0.0991925
0.09676225
0.08265528
0.0227728
0.1066525
0.1065395
0.1053938
0.1039963
0.102092
0.09795048
0.08832177
0.08399804
0.08193729
0.08098639
0.08078052
0.08118129
0.08195956
0.08254158
0.08203952
0.07990004
0.07651179
0.07192035
0.06465575
0.05866231
0.05819436
0.06316973
0.07346804
0.09182648
0.09742422
0.09910164
0.0992444
0.09685928
0.08275968
0.02279215
0.1066526
0.1065341
0.1053771
0.1039577
0.102011
0.09779931
0.08800617
0.08368858
0.08169149
0.08079637
0.08061116
0.08096508
0.08156257
0.0817232
0.08047508
0.07737386
0.0732085
0.06850814
0.06162649
0.05620944
0.05643591
0.06197489
0.07272632
0.09155871
0.09732811
0.09908385
0.09927211
0.09691996
0.08282518
0.02280424
0.1066515
0.1065275
0.1053582
0.1039116
0.1019061
0.09761154
0.0877461
0.08352966
0.08161073
0.08074355
0.0805473
0.08084213
0.08128881
0.08113259
0.07934383
0.07555104
0.07080543
0.06599539
0.05936062
0.05428508
0.05496039
0.06086863
0.0719368
0.09122321
0.09719331
0.09904401
0.09927916
0.09695393
0.08286373
0.02281137
0.1066502
0.106521
0.105338
0.1038547
0.1017604
0.09735617
0.08756706
0.08354032
0.0816807
0.08080223
0.080568
0.08080261
0.08114954
0.08082651
0.07878546
0.07468438
0.06966916
0.06480384
0.05825846
0.05318379
0.05395228
0.05993357
0.07100822
0.09061768
0.09694531
0.09896666
0.09926718
0.09696869
0.08288426
0.02281526
0.1066493
0.1065162
0.1053211
0.1037992
0.1015965
0.09704094
0.08748726
0.08365436
0.08181148
0.08089539
0.08061618
0.08080925
0.08113018
0.08082271
0.0788667
0.07491136
0.07002661
0.06521753
0.05860685
0.05316921
0.05367592
0.05946883
0.07003629
0.08910788
0.09642747
0.09882953
0.0992378
0.09697028
0.08289326
0.02281713
0.106649
0.1065141
0.1053134
0.1037684
0.1014871
0.09680186
0.08752772
0.08374096
0.08187083
0.08093003
0.08063272
0.08082677
0.08121377
0.08112417
0.07962217
0.0763078
0.07197682
0.06731528
0.06042004
0.05420717
0.0540445
0.05949691
0.06943174
0.08461722
0.09555142
0.09866769
0.09920502
0.09696545
0.08289515
0.0228177
0.1066493
0.1065155
0.1053192
0.103794
0.1015795
0.09699311
0.08741414
0.08358789
0.08176858
0.08086745
0.08059712
0.08084137
0.08138107
0.08168367
0.08094509
0.07867739
0.0752331
0.07078903
0.06339914
0.05605158
0.05477378
0.05959072
0.0690505
0.08531414
0.09544506
0.0986153
0.09918926
0.09695954
0.08289234
0.02281734
0.1066502
0.1065196
0.1053326
0.1038367
0.1017059
0.09725511
0.08754684
0.0835369
0.08166095
0.08076783
0.08053345
0.08085842
0.08160244
0.08238081
0.08253279
0.08147735
0.07907512
0.07490233
0.06690628
0.05834747
0.05584345
0.06004796
0.06936829
0.08401762
0.09537863
0.09862511
0.09918888
0.09695298
0.08288494
0.02281603
0.1066517
0.1065258
0.1053517
0.1038941
0.1018622
0.09752567
0.08765551
0.08346172
0.0815434
0.08066617
0.08047695
0.08089811
0.08186408
0.08312312
0.08413902
0.08424824
0.08286894
0.07898846
0.0703862
0.06068815
0.05701579
0.06064797
0.07004524
0.08659221
0.09585173
0.09871805
0.09920238
0.09694358
0.082871
0.02281343
0.1066535
0.1065329
0.1053706
0.1039416
0.1019765
0.09773401
0.08788006
0.08354703
0.08154611
0.08064903
0.08048668
0.08099663
0.08217468
0.08387632
0.08565942
0.08678632
0.08630586
0.08267897
0.07353091
0.06288663
0.05823766
0.06137689
0.0710271
0.08921642
0.09650989
0.09885675
0.0992197
0.09692579
0.08284642
0.02280882
0.106655
0.1065396
0.1053875
0.1039792
0.1020564
0.09788038
0.08815004
0.0837841
0.08171798
0.08077592
0.08060889
0.08118229
0.08254687
0.08464099
0.08708489
0.0890663
0.08932588
0.08587402
0.07627852
0.0649903
0.05967039
0.06238945
0.07212278
0.09086164
0.09703494
0.09897348
0.09922365
0.09689094
0.08280483
0.02280111
0.1066551
0.1065448
0.1054029
0.1040136
0.1021292
0.09803313
0.08852388
0.08414486
0.08200434
0.08099903
0.08080861
0.08143111
0.08296676
0.08541698
0.08843684
0.09113247
0.09197833
0.08860472
0.07865883
0.06702041
0.06130861
0.06365815
0.07313755
0.09150892
0.09726629
0.09902378
0.09920131
0.09682956
0.08273742
0.02278867
0.1066522
0.1065471
0.1054176
0.1040527
0.1022278
0.09830545
0.08921246
0.08458008
0.08226666
0.0811905
0.08099097
0.08167934
0.08339648
0.08619158
0.08973277
0.09303497
0.09433344
0.09093867
0.08072162
0.068953
0.06301883
0.06498029
0.07401991
0.09185762
0.09738665
0.09903626
0.09915167
0.09673227
0.08263242
0.02276927
0.1066441
0.1065446
0.1054323
0.1041044
0.1023875
0.09884022
0.09020217
0.08458958
0.08211857
0.0811289
0.08103631
0.0818608
0.08379807
0.08694668
0.090977
0.09480455
0.0964433
0.09293787
0.08252511
0.07080039
0.06477079
0.06635118
0.07488572
0.09214928
0.09748024
0.09903121
0.09907537
0.09658886
0.08247449
0.0227396
0.1066282
0.1065362
0.1054479
0.1041661
0.1025677
0.09953866
0.09254262
0.08489889
0.0821641
0.0811066
0.08106308
0.08201713
0.08417644
0.0876714
0.09215998
0.09644543
0.09832942
0.09464207
0.08412112
0.07260071
0.06659852
0.06783134
0.07582309
0.09243413
0.09758125
0.09902807
0.09897981
0.09639158
0.08224476
0.02269517
0.1066026
0.106525
0.1054735
0.1042495
0.1027677
0.09995203
0.09294053
0.08588632
0.0826632
0.08138515
0.08126243
0.0822392
0.08454586
0.08834018
0.09324691
0.09793153
0.09998098
0.09606145
0.08553451
0.0743844
0.06855873
0.06951369
0.07692635
0.09277685
0.09773911
0.09907003
0.09889544
0.09614512
0.08192053
0.02262934
0.1065704
0.1065298
0.1055416
0.1043973
0.1030484
0.1006482
0.09503176
0.08707631
0.08362208
0.08201168
0.08161427
0.08245281
0.08480753
0.08885579
0.09415809
0.09920489
0.1013584
0.09717171
0.08673722
0.07612677
0.07068464
0.07152153
0.07835758
0.09327474
0.09805344
0.09925847
0.09890932
0.09588878
0.08144998
0.02253265
0.1065507
0.1066076
0.1057365
0.1047153
0.1035381
0.1014287
0.09588746
0.08872187
0.08464535
0.08247149
0.08166667
0.082304
0.08470274
0.08904005
0.09477572
0.1001868
0.1024031
0.09791302
0.08762185
0.07768205
0.07289193
0.07395036
0.08038434
0.09411955
0.09872527
0.0998073
0.09922883
0.09574028
0.08050817
0.02239537
0.1066024
0.1068783
0.1062058
0.1053648
0.1044014
0.1028106
0.09894149
0.09117947
0.08576542
0.08244074
0.08100608
0.08144685
0.08399072
0.08874016
0.09500209
0.1008076
0.1030568
0.09820618
0.08800214
0.07871911
0.07479803
0.07662829
0.08330556
0.09567214
0.1000994
0.1010824
0.1002731
0.09616549
0.07958635
0.0221991
0.1068069
0.1073918
0.1069691
0.1063734
0.1056831
0.1045439
0.1018776
0.09529338
0.08609538
0.08117916
0.07928316
0.07979399
0.08269499
0.08799224
0.09483852
0.1010328
0.1032764
0.09800295
0.08770917
0.07879844
0.07560248
0.07863896
0.08694042
0.0984043
0.1024773
0.10336
0.102499
0.09804598
0.07986503
0.02195961
0.1066848
0.107122
0.1068978
0.1066392
0.1063595
0.1058609
0.1045066
0.1001664
0.08685039
0.07928428
0.07710866
0.07802967
0.08140412
0.08716313
0.09440631
0.1008164
0.1029826
0.09734347
0.08685993
0.07792624
0.07479335
0.0786939
0.09024831
0.1022314
0.1050701
0.1056249
0.1051991
0.1022559
0.08605371
0.02337737
0.1068068
0.1073912
0.106967
0.1063672
0.1056658
0.1044997
0.101769
0.09499515
0.08565241
0.08107519
0.07922058
0.07956018
0.08197896
0.0863338
0.09181592
0.09660323
0.09806401
0.09328015
0.08431544
0.07694725
0.07479851
0.07838321
0.08711527
0.09846979
0.1025013
0.1033761
0.1025118
0.09805757
0.07987579
0.02195997
0.1061581
0.1077693
0.1081736
0.1075204
0.1061859
0.1039778
0.1000697
0.0939295
0.08767417
0.08347718
0.0813824
0.08128916
0.08322465
0.08707531
0.09206844
0.09648518
0.09784467
0.09333951
0.08465236
0.0774497
0.07536718
0.07861661
0.08568024
0.09365012
0.09809127
0.09895714
0.09636195
0.08743516
0.06363457
0.01661793
0.1052797
0.1062947
0.1068524
0.1063154
0.1048468
0.1023578
0.09826504
0.09332825
0.08867117
0.08523171
0.08328517
0.08298198
0.08447291
0.08769229
0.09195328
0.09573217
0.09681924
0.09259611
0.0842125
0.07704487
0.07464566
0.0771014
0.08278929
0.08942263
0.09342638
0.09401341
0.0908616
0.08136152
0.05855773
0.0159427
0.1049178
0.1052514
0.1053672
0.1045599
0.1028701
0.1002111
0.09624836
0.0918957
0.08822725
0.08555774
0.08403096
0.08382183
0.08510425
0.08782528
0.09137479
0.09444136
0.0951424
0.09109585
0.08287556
0.07553629
0.07265126
0.07439585
0.07932995
0.08557677
0.08947878
0.09020012
0.08749775
0.0790979
0.0582208
0.01636305
0.1048298
0.1048154
0.1045442
0.1034047
0.101436
0.09854098
0.09453815
0.09042472
0.0872304
0.08505881
0.08391713
0.08389669
0.08510576
0.08744387
0.09033048
0.09264357
0.09285665
0.08888256
0.0807528
0.0732293
0.07003159
0.07150775
0.0763881
0.08293761
0.08709872
0.0882339
0.08627007
0.07908106
0.05952235
0.01678838
0.104833
0.104681
0.1041866
0.1028064
0.1005923
0.09739709
0.09321264
0.08915237
0.08621547
0.0843573
0.08347953
0.08359392
0.084726
0.08669368
0.08889942
0.0903805
0.08999312
0.08601914
0.07801498
0.07046664
0.06729164
0.06895134
0.07422247
0.0813622
0.08593755
0.08753595
0.08621088
0.07986508
0.06093102
0.01708839
0.1048536
0.1046515
0.1040377
0.1025004
0.100095
0.09661127
0.09228028
0.08839884
0.08564996
0.08392747
0.08313176
0.08324205
0.08420634
0.08573628
0.0871756
0.08770022
0.0865883
0.08257186
0.0748021
0.06746643
0.06465003
0.06680276
0.07265513
0.08043456
0.08542978
0.08743103
0.0865713
0.08075182
0.06209006
0.01728921
0.1048694
0.104646
0.1039649
0.1023246
0.09977288
0.09601869
0.09169314
0.08804026
0.08539346
0.0837008
0.08289022
0.08291617
0.08364655
0.08466661
0.08523133
0.0846569
0.08270342
0.07862845
0.07123023
0.06434814
0.06215764
0.06497383
0.07145215
0.07982624
0.08519419
0.08751901
0.08698468
0.08149117
0.06294784
0.01742204
0.1048768
0.1046397
0.1039173
0.1022127
0.09956702
0.09562666
0.09112507
0.08754736
0.08501357
0.08339921
0.08261182
0.0825727
0.08306684
0.08354
0.08314091
0.08134926
0.07847597
0.07435202
0.06744628
0.06120668
0.05981468
0.06336227
0.07044546
0.07933824
0.08503593
0.08762036
0.08731753
0.08203312
0.06354563
0.01750901
0.1048776
0.1046278
0.1038761
0.1021283
0.09942458
0.09536898
0.0907386
0.08714396
0.08465785
0.08309932
0.08233748
0.08224536
0.08251376
0.08243533
0.08104029
0.07799648
0.07420182
0.07005068
0.06369093
0.05817492
0.05763371
0.06189567
0.06953038
0.07888274
0.08487676
0.08767334
0.08754231
0.08239961
0.06394487
0.0175647
0.1048743
0.1046108
0.1038339
0.1020497
0.09930218
0.09516786
0.09047278
0.08687228
0.08441386
0.08288624
0.08213326
0.08198628
0.08204874
0.08147
0.07917018
0.07500236
0.07038941
0.06620728
0.0603302
0.05545596
0.05566683
0.06053834
0.068633
0.07838027
0.08468385
0.0876644
0.08766989
0.08262985
0.06420035
0.01759914
0.1048692
0.1045912
0.1037887
0.1019665
0.09917545
0.0949897
0.09029862
0.08673666
0.08430759
0.08279064
0.08202558
0.08182057
0.0817187
0.08077009
0.07782203
0.07285647
0.06762987
0.06337731
0.05781333
0.05332148
0.05402689
0.05931864
0.06774125
0.07781564
0.0844254
0.08759042
0.08771929
0.08276069
0.06435474
0.01761931
0.104864
0.1045723
0.1037442
0.101881
0.0990463
0.09485333
0.09022967
0.0867243
0.08430997
0.08278266
0.08199097
0.08173563
0.08153597
0.0804053
0.07716715
0.07185441
0.06633755
0.06202575
0.05657509
0.05207876
0.05289426
0.05834108
0.06687398
0.07711696
0.08405074
0.08744511
0.08770756
0.08282175
0.0644397
0.0176302
0.1048602
0.1045582
0.1037097
0.1018108
0.09893775
0.09476591
0.09023352
0.08677348
0.0843567
0.08280745
0.08198686
0.081703
0.08149201
0.08039873
0.0772751
0.07213519
0.06675469
0.06246421
0.05692671
0.05199492
0.05248465
0.05782622
0.06622721
0.07631139
0.08353544
0.08723495
0.08765359
0.08283691
0.06447831
0.01763528
0.1048587
0.1045523
0.1036949
0.101779
0.09888962
0.09475345
0.09025672
0.08679723
0.08437112
0.08280913
0.08197584
0.08170073
0.08158049
0.08076923
0.07821463
0.07382834
0.06903029
0.06480565
0.05891537
0.05310231
0.05277368
0.05773697
0.06588348
0.07558088
0.08301716
0.08703385
0.08759156
0.08282807
0.06448789
0.01763672
0.1048598
0.104556
0.1037044
0.1018001
0.09891674
0.09472205
0.09018201
0.08672985
0.0843215
0.08277026
0.08194807
0.081722
0.08178524
0.08146757
0.07987703
0.07674243
0.0728818
0.06875499
0.06225632
0.05520974
0.05362133
0.05791114
0.06572768
0.07526536
0.08281376
0.08694222
0.08755362
0.08281004
0.06447826
0.01763563
0.1048633
0.1045681
0.1037328
0.1018577
0.09901198
0.09482965
0.09021344
0.08669735
0.08426677
0.08271777
0.08191791
0.08176782
0.08206264
0.08232181
0.08182853
0.08013256
0.07739299
0.073444
0.06622677
0.05790195
0.05493177
0.05844767
0.06599124
0.07541474
0.08289043
0.08696577
0.08754481
0.08278488
0.06444995
0.017632
0.1048687
0.1045864
0.1037745
0.1019381
0.09913149
0.09492965
0.09023665
0.08666846
0.08422249
0.08268007
0.08191064
0.08184924
0.08238336
0.08319673
0.08371971
0.08336469
0.08173357
0.0780456
0.07015863
0.0606757
0.05643553
0.05920034
0.06653698
0.07601248
0.08325392
0.0870928
0.08755641
0.08274455
0.06439562
0.01762479
0.1048749
0.1046071
0.1038197
0.1020199
0.09925406
0.09508802
0.09036217
0.08673934
0.08426066
0.0827118
0.08196676
0.08199051
0.08274698
0.08404854
0.08543476
0.08621552
0.08555879
0.08213808
0.07368781
0.0632715
0.05800397
0.06011005
0.06727018
0.07685058
0.08377112
0.08726854
0.08756154
0.08267005
0.06429956
0.01761189
0.1048805
0.1046269
0.1038622
0.1020948
0.0993671
0.09526544
0.09057677
0.08694203
0.08443319
0.08286145
0.08212185
0.08221343
0.08316476
0.0848854
0.08698863
0.0886985
0.08884313
0.08563218
0.07673029
0.0656703
0.05970155
0.06127336
0.06818554
0.07769334
0.08424363
0.08740776
0.08752026
0.08253249
0.06413734
0.01759012
0.1048839
0.1046435
0.1039022
0.1021676
0.09948248
0.09546996
0.09087523
0.08725387
0.08471432
0.08310781
0.08236011
0.08250719
0.08363356
0.08572204
0.08843063
0.09090029
0.09167973
0.08858823
0.07932684
0.06789697
0.06151935
0.0626566
0.06921618
0.07839785
0.08455358
0.08745545
0.08739862
0.08229814
0.06387648
0.01755471
0.104883
0.1046549
0.1039424
0.1022517
0.09963226
0.09576189
0.09130659
0.08764789
0.08504331
0.08338967
0.08263234
0.08283698
0.08413421
0.08656202
0.08980025
0.09290189
0.09417231
0.09110102
0.08155258
0.06997221
0.06339329
0.06414172
0.07025477
0.07898502
0.08476105
0.0874203
0.08717735
0.08192995
0.06347465
0.01749878
0.1048751
0.1046603
0.1039894
0.1023665
0.09985153
0.09619558
0.09177655
0.08795404
0.08528331
0.08361791
0.08288361
0.0831679
0.08464462
0.08739822
0.09111503
0.09475246
0.09639362
0.09325047
0.08348488
0.07193847
0.06532285
0.0657318
0.07135398
0.07957017
0.08494708
0.08733138
0.08684922
0.08138951
0.06287741
0.0174123
0.1048585
0.1046641
0.1040597
0.1025374
0.1001633
0.09676431
0.09244221
0.08846158
0.08564702
0.08390731
0.08316681
0.08351569
0.08515814
0.08821611
0.09236833
0.09646437
0.09837534
0.0950842
0.08518269
0.07384456
0.06735268
0.06749657
0.0726077
0.08024108
0.0852137
0.08725876
0.08644363
0.08065491
0.06202306
0.01728055
0.1048369
0.1046915
0.1042052
0.102838
0.100648
0.0975108
0.09338577
0.08930086
0.08631267
0.08442082
0.08357829
0.08390634
0.08565267
0.08897345
0.09352064
0.09801322
0.1001099
0.09661211
0.08666566
0.07571189
0.06953693
0.06956228
0.07421197
0.08122473
0.08575544
0.08738213
0.08609353
0.07977511
0.06086933
0.01708121
0.1048327
0.1048239
0.1045606
0.1034344
0.1014898
0.09864307
0.09468177
0.09056798
0.08733799
0.08513734
0.0840327
0.08421969
0.08600197
0.08955955
0.09448769
0.09934089
0.1015577
0.0978049
0.08789021
0.07748093
0.07185941
0.07202939
0.07640208
0.0828415
0.08694902
0.08809974
0.08616433
0.07899865
0.05946512
0.01678285
0.1049199
0.1052583
0.1053822
0.10459
0.1029264
0.1003003
0.09634505
0.09198281
0.08827529
0.08557945
0.08410138
0.0841098
0.08594887
0.08979652
0.09515252
0.10037
0.1026607
0.09859858
0.08873355
0.07895495
0.07412113
0.0748304
0.07935527
0.0855071
0.08935857
0.09008698
0.08740565
0.0790249
0.05817079
0.01635906
0.1052811
0.1062998
0.1068648
0.1063422
0.1049011
0.1024554
0.09841997
0.09348708
0.08875902
0.0852463
0.08332424
0.08322923
0.08526051
0.08953822
0.09542158
0.1010337
0.1033631
0.09891845
0.0890188
0.07979119
0.07582793
0.07746232
0.08281572
0.08936956
0.09333574
0.09392629
0.09078885
0.08130232
0.05851699
0.01594001
0.1061588
0.1077724
0.1081816
0.107539
0.1062264
0.1040585
0.1002171
0.09416075
0.08792042
0.0836061
0.08148745
0.08155365
0.08398527
0.08882859
0.09529802
0.1012985
0.1036254
0.09873267
0.08863792
0.07967979
0.07633461
0.07892462
0.08568581
0.09360737
0.09803275
0.09890374
0.09631749
0.08739761
0.06360709
0.0166164
0.1068069
0.1073918
0.106969
0.1063727
0.1056798
0.1045328
0.1018518
0.0952384
0.0860863
0.08124302
0.07936429
0.07985379
0.08273397
0.0880298
0.09489218
0.101108
0.1033648
0.09808558
0.08777628
0.07884527
0.07563223
0.07865584
0.08694888
0.09840754
0.1024784
0.1033606
0.1024994
0.0980467
0.07986636
0.02195975
0.1066022
0.1068772
0.1062026
0.1053555
0.104375
0.102742
0.09878993
0.09093287
0.08565223
0.08249444
0.08105264
0.08128172
0.08331146
0.08710514
0.0919652
0.09625977
0.09757207
0.09307766
0.08424689
0.07667951
0.07396558
0.07639714
0.08332023
0.09569666
0.1001284
0.101108
0.1002945
0.09618476
0.0796045
0.02219998
0.1052797
0.1062948
0.1068527
0.1063158
0.1048476
0.1023594
0.09826793
0.09333246
0.08867587
0.08523699
0.0832934
0.0830001
0.08451692
0.08779244
0.09215151
0.09605849
0.09725152
0.09304998
0.08459248
0.07729878
0.07478132
0.07716182
0.08281348
0.08943501
0.09343189
0.0940173
0.09086607
0.08136722
0.05856351
0.01594365
0.1039415
0.1039068
0.1049313
0.1053185
0.1045452
0.1025238
0.09908354
0.09491839
0.09083778
0.08753626
0.08541535
0.0847465
0.08573075
0.08832481
0.0919154
0.09514525
0.09603137
0.09213645
0.08416036
0.07715503
0.07460847
0.07652155
0.08102894
0.08580352
0.08843732
0.0879097
0.08308516
0.07147419
0.04864824
0.01321756
0.1033545
0.1022589
0.1026458
0.102948
0.1023973
0.1007421
0.09792105
0.09449918
0.09111455
0.08827589
0.08635326
0.08563457
0.08632165
0.08836379
0.09120115
0.09367043
0.09412693
0.09042848
0.08279944
0.07586016
0.07301089
0.07425961
0.07778606
0.08148349
0.08337296
0.08242669
0.07743021
0.06620651
0.04507985
0.01273904
0.1031713
0.1015421
0.1013096
0.1011454
0.1003502
0.09865251
0.0960704
0.09307889
0.09020745
0.08783457
0.08624215
0.08566059
0.08623548
0.08786357
0.08999806
0.09165564
0.09156981
0.08794963
0.08055477
0.07356807
0.0704008
0.07116936
0.07418778
0.07753912
0.07937014
0.07873657
0.07449443
0.06456459
0.04501112
0.01305446
0.103136
0.1013017
0.1007185
0.1001778
0.0990686
0.09713904
0.0944953
0.0916344
0.08903248
0.08697205
0.08564683
0.0852075
0.08571077
0.08695776
0.08836658
0.08911598
0.08836313
0.08473946
0.07757312
0.07061413
0.0673683
0.06807715
0.07115366
0.07476535
0.07700101
0.07702315
0.07373716
0.06500052
0.0463287
0.01343741
0.1031408
0.1012374
0.1004825
0.09971096
0.09836369
0.09619947
0.09344017
0.09060877
0.08812242
0.08621213
0.08502012
0.08463137
0.08500336
0.08580693
0.08638143
0.08606617
0.08451121
0.08084902
0.07400466
0.06728059
0.06430182
0.06536229
0.06889031
0.07306764
0.07586765
0.07656255
0.07407502
0.06616009
0.04784188
0.01372576
0.1031495
0.1012213
0.1003798
0.09947362
0.09796754
0.095616
0.09275919
0.08993315
0.08749421
0.08564606
0.0844999
0.08408581
0.08425471
0.08451625
0.08409542
0.08252229
0.08004293
0.07635836
0.06998781
0.06375261
0.0613666
0.06306125
0.06722222
0.07203518
0.0753855
0.07663816
0.07472863
0.06732749
0.04910312
0.01392149
0.1031532
0.1012106
0.1003193
0.09933288
0.09772635
0.09524112
0.09226927
0.08941103
0.08699369
0.08518569
0.08406301
0.08359743
0.08352075
0.08314948
0.08156433
0.07855224
0.07507945
0.07143967
0.06569858
0.06017293
0.05861115
0.06107637
0.06590089
0.07130208
0.07515622
0.07683908
0.07533291
0.0682524
0.05002895
0.01404975
0.1031518
0.101195
0.100269
0.09923003
0.09755751
0.09498401
0.09192712
0.08902723
0.0866109
0.08482485
0.08371284
0.08318573
0.08284526
0.08178894
0.07893093
0.07439767
0.06996198
0.06645278
0.06142375
0.05671446
0.05606748
0.05931692
0.06476356
0.07068778
0.07497873
0.07699143
0.07577198
0.06890223
0.05066252
0.01413146
0.1031471
0.1011747
0.1002192
0.09913939
0.09741323
0.09478414
0.09168042
0.08875797
0.08634263
0.084569
0.08345806
0.08286797
0.08227923
0.08058048
0.07653078
0.07062461
0.0653672
0.06199405
0.05759865
0.05361962
0.05379667
0.05773272
0.06371087
0.07008378
0.07476717
0.07704381
0.07603945
0.06931955
0.05107279
0.01418158
0.1031409
0.1011524
0.1001692
0.09905249
0.09728166
0.09462166
0.09150727
0.08858729
0.08617916
0.08441124
0.08329274
0.08264677
0.08186902
0.07970608
0.0748218
0.06797095
0.06208835
0.05872878
0.0547392
0.05119163
0.05191282
0.05634383
0.06272563
0.06946138
0.07448967
0.07699347
0.07616486
0.06956159
0.05132222
0.01421057
0.1031351
0.1011317
0.1001235
0.09897273
0.09716381
0.09449637
0.0913973
0.08849283
0.08609247
0.08432353
0.08319149
0.08250547
0.08162797
0.07925332
0.07401603
0.06677057
0.06058219
0.0571636
0.0533188
0.04975421
0.05058483
0.05524303
0.06185565
0.0688291
0.07414142
0.07685551
0.07618478
0.06967998
0.0514601
0.01422585
0.1031308
0.1011168
0.10009
0.09891299
0.09707555
0.09441238
0.09133663
0.0884478
0.08605073
0.08427426
0.08312626
0.08242379
0.08155196
0.07924352
0.07416011
0.06712322
0.06108222
0.05763217
0.05367672
0.04959614
0.05000716
0.05458214
0.06123622
0.06828143
0.07376332
0.07666551
0.07613869
0.06971792
0.05152371
0.01423262
0.1031291
0.1011107
0.1000759
0.09888721
0.09703687
0.0943776
0.09131003
0.08842477
0.08602547
0.0842394
0.08308007
0.08239417
0.08164952
0.07972545
0.07539394
0.06926265
0.06382078
0.06029651
0.05589835
0.05082733
0.0502513
0.0543863
0.06089859
0.06789405
0.07344761
0.07649185
0.07607275
0.06971176
0.05154075
0.01423427
0.1031303
0.1011145
0.1000842
0.09890231
0.09705824
0.09438565
0.09130547
0.08841482
0.08601017
0.08421544
0.08305398
0.0824194
0.08191135
0.08065856
0.07764732
0.07307835
0.06858288
0.06491527
0.05970717
0.05329218
0.05127831
0.05463579
0.06084255
0.06773026
0.07330465
0.07640114
0.07602275
0.06968434
0.05152685
0.0142326
0.1031342
0.1011274
0.1001122
0.09895135
0.09713131
0.09446055
0.09135691
0.08844154
0.08601917
0.08421364
0.08305849
0.08249736
0.08227033
0.08177255
0.08022371
0.0774519
0.07414016
0.0704462
0.06430912
0.05651428
0.05294036
0.05534121
0.06114959
0.06788319
0.07337222
0.0764118
0.07599685
0.06963879
0.0514828
0.01422762
0.1031402
0.1011475
0.100155
0.09902481
0.09723797
0.09456554
0.09143967
0.08850205
0.08606313
0.08424966
0.08310814
0.08262899
0.08267335
0.08285431
0.08257578
0.08141543
0.07930817
0.07579074
0.06885023
0.05984792
0.05489521
0.05635449
0.06173523
0.06829207
0.07362064
0.07650503
0.07597996
0.06956053
0.05139625
0.01421763
0.1031472
0.1011711
0.1002047
0.09910821
0.09735998
0.09470603
0.09157512
0.08862273
0.0861698
0.08435021
0.08322496
0.08282581
0.08311011
0.0838525
0.08458839
0.08473924
0.08370265
0.08045227
0.07289496
0.06294917
0.05692082
0.05756127
0.06251467
0.06885825
0.07396451
0.07662452
0.07593317
0.06941718
0.05124172
0.01419945
0.103154
0.1011946
0.1002551
0.09919345
0.09748941
0.09487645
0.09177358
0.0888295
0.08637074
0.08454403
0.08343078
0.08310217
0.08359242
0.08479363
0.08633067
0.08751897
0.08736707
0.08436812
0.07634364
0.06573923
0.05898047
0.05896845
0.06347949
0.06951098
0.07430305
0.07669528
0.07580143
0.06916068
0.05098042
0.01416816
0.1031589
0.1012151
0.1003042
0.09928183
0.09762797
0.09507828
0.09203578
0.08912231
0.08666632
0.08483205
0.08372639
0.08345951
0.08412956
0.08571588
0.0879015
0.08991578
0.09046767
0.08764611
0.0792552
0.06825041
0.06106803
0.06054821
0.06458545
0.07019133
0.07457243
0.07666422
0.0755333
0.06873467
0.05056194
0.01411663
0.1031601
0.1012301
0.1003538
0.0993842
0.0977971
0.09534375
0.09239071
0.08951229
0.08705458
0.08520647
0.08410269
0.08389035
0.08472211
0.08664424
0.0893746
0.09205999
0.09315984
0.09042067
0.08173378
0.07054711
0.06318456
0.06226585
0.06579553
0.07088548
0.07478897
0.07652713
0.07509605
0.06808115
0.04992415
0.0140345
0.1031559
0.1012398
0.100413
0.09952484
0.09804117
0.09572625
0.09286365
0.09000287
0.08753324
0.08566428
0.08455526
0.08438793
0.08536433
0.08758556
0.09078723
0.09402882
0.09554693
0.09279634
0.08387761
0.07270401
0.06537043
0.06416301
0.06718076
0.07169199
0.07504927
0.07634124
0.07449777
0.06715797
0.04899852
0.01390685
0.1031465
0.1012539
0.1005127
0.09975799
0.09843139
0.09630436
0.09355931
0.09070766
0.08819167
0.08626268
0.08511107
0.08495409
0.08604213
0.08852428
0.09213919
0.09584777
0.09767572
0.09483125
0.08575106
0.07477695
0.06768201
0.06633791
0.06889723
0.07280503
0.07556355
0.07628474
0.07385502
0.06599715
0.04774146
0.01371257
0.1031408
0.1013158
0.1007451
0.1002202
0.09913092
0.09723561
0.0946198
0.09175992
0.08914012
0.087065
0.08577996
0.08555611
0.08669996
0.0894031
0.09338816
0.09749671
0.09954428
0.09653503
0.08736269
0.07676176
0.0701379
0.06890098
0.0711838
0.07457027
0.07673112
0.07676805
0.07353131
0.06484701
0.04623485
0.0134262
0.1031751
0.101554
0.1013333
0.1011855
0.1004121
0.09874836
0.09619244
0.09320874
0.09032595
0.08794293
0.08639319
0.08601779
0.08717928
0.09009635
0.09444585
0.09891911
0.1011149
0.09787277
0.08864625
0.07854129
0.07261845
0.07183327
0.07421586
0.07738482
0.07913334
0.07850682
0.07430518
0.06442179
0.04492406
0.01304534
0.1033576
0.1022691
0.1026676
0.1029873
0.1024607
0.1008378
0.09803191
0.09461315
0.09121395
0.08836387
0.08648583
0.0859707
0.08721105
0.09042201
0.09519613
0.1000409
0.1023321
0.09877727
0.08946016
0.0798534
0.07476291
0.07477802
0.07780049
0.08135373
0.08317283
0.0822298
0.07726473
0.06607915
0.04500168
0.01273181
0.1039438
0.103915
0.1049496
0.1053534
0.1046059
0.102623
0.0992179
0.09505714
0.09094542
0.0876113
0.0855213
0.08504733
0.08656132
0.09023771
0.09555026
0.1008005
0.103146
0.09918132
0.08964088
0.08035442
0.07599066
0.07692879
0.08103847
0.08570139
0.08828619
0.0877609
0.08295854
0.07137383
0.04858439
0.01321229
0.1052811
0.1063
0.1068648
0.1063409
0.1048954
0.1024441
0.09840141
0.09350477
0.08883594
0.08534564
0.08340631
0.08328361
0.08530294
0.08959378
0.09551015
0.1011607
0.1035149
0.09906522
0.08914166
0.07987889
0.0758827
0.07749378
0.08283206
0.089378
0.09334009
0.09393007
0.09079302
0.08130732
0.05852192
0.01594079
0.1066025
0.1068784
0.1062057
0.1053634
0.1043924
0.1027814
0.09892954
0.09112754
0.08587603
0.08264321
0.08118721
0.08156577
0.08407259
0.08883333
0.09514474
0.1010106
0.103298
0.09843603
0.08819141
0.07885161
0.07487946
0.07667288
0.0833257
0.09567738
0.1001019
0.1010845
0.1002753
0.09616815
0.07958978
0.0221994
0.1065502
0.1066061
0.1057326
0.1047043
0.1035061
0.1013433
0.09573675
0.08859101
0.08462417
0.08251797
0.08167319
0.08210714
0.08402004
0.08742745
0.09174169
0.09554068
0.09665504