/*--------------------------------*- C++ -*----------------------------------*\
| =========                 |                                                 |
| \\      /  F ield         | OpenFOAM: The Open Source CFD Toolbox           |
|  \\    /   O peration     | Version:  2506                                  |
|   \\  /    A nd           | Website:  www.openfoam.com                      |
|    \\/     M anipulation  |                                                 |
\*---------------------------------------------------------------------------*/
FoamFile
{
    version     2.0;
    format      ascii;
    arch        "LSB;label=32;scalar=64";
    class       volScalarField;
    location    "350/airRegion";
    object      k;
}
// * * * * * * * * * * * * * * * * * * * * * * * * * * * * * * * * * * * * * //

dimensions      [0 2 -2 0 0 0 0];

internalField   nonuniform List<scalar> 
85779
(
0.09241252
0.08934146
0.08844335
0.08807991
0.08785369
0.08750989
0.08629367
0.08098941
0.05285872
0.03887213
0.03087736
0.02606353
0.02320127
0.02168629
0.02110588
0.02105362
0.02123052
0.02162474
0.02264952
0.02527214
0.03102142
0.04279372
0.06840591
0.08429882
0.08711327
0.08779099
0.08800576
0.08781817
0.08604192
0.07249464
0.09016823
0.08487361
0.08289454
0.08195087
0.08129074
0.0803342
0.07757394
0.06735472
0.0472298
0.03648092
0.02985838
0.02562369
0.02300666
0.02159815
0.0210655
0.02102855
0.0211751
0.02144029
0.02222269
0.02443833
0.0292611
0.03812121
0.0530793
0.07500459
0.07955671
0.08087914
0.08130402
0.0809827
0.07858888
0.06396909
0.09012359
0.08421606
0.08174474
0.08045099
0.07947159
0.07796183
0.07329545
0.05411541
0.04197246
0.03408771
0.02875287
0.02512708
0.02278133
0.02145764
0.02089951
0.02077683
0.02080638
0.02092385
0.02151352
0.02341042
0.02760864
0.03523181
0.0483433
0.07222028
0.07726835
0.07888512
0.07954645
0.0795372
0.07790744
0.06537387
0.09038741
0.08437451
0.08171345
0.0802314
0.07900274
0.07671749
0.06599733
0.04972605
0.03932198
0.03256483
0.02792519
0.02470075
0.02255647
0.02129042
0.02068515
0.02044909
0.02033176
0.02028258
0.02068966
0.02236055
0.02625061
0.03349642
0.04645944
0.07136219
0.07667045
0.07849962
0.07939083
0.07968901
0.07855978
0.06653771
0.09061761
0.08462639
0.0818974
0.08031204
0.07889213
0.07616662
0.06655375
0.04773663
0.03782269
0.03158345
0.02731854
0.02433898
0.0223261
0.021088
0.02042029
0.02005633
0.01977538
0.0195476
0.0197833
0.02130579
0.02508053
0.03228546
0.04544445
0.07104934
0.07659073
0.07861126
0.07969296
0.08019657
0.07929908
0.06735953
0.09077297
0.08481949
0.08206345
0.08041243
0.07884732
0.07556441
0.06121775
0.04596129
0.03673187
0.03085115
0.02683171
0.02401467
0.02208574
0.02085049
0.02010625
0.01960238
0.01914505
0.01873144
0.01880942
0.02024312
0.02400998
0.03129821
0.04470612
0.07086035
0.07663184
0.07882791
0.08005909
0.08068673
0.07986042
0.06794296
0.09086825
0.08494311
0.08217217
0.08046767
0.07874724
0.07493141
0.0586627
0.0441874
0.03565979
0.03018596
0.02639947
0.02371372
0.02184031
0.02058803
0.01975357
0.01909753
0.01845198
0.0178477
0.0177836
0.01917554
0.02299485
0.03040791
0.0440502
0.07066628
0.07666241
0.07901849
0.08036847
0.0810749
0.08026688
0.06834214
0.0909226
0.08501338
0.08222973
0.08047773
0.07858884
0.07404242
0.05376978
0.04200408
0.03461268
0.02959372
0.02602049
0.02343905
0.0215991
0.02031423
0.01937779
0.01855784
0.01771287
0.01691452
0.01672652
0.01811593
0.02202231
0.02956809
0.04341489
0.07043274
0.07664514
0.0791476
0.08059552
0.08135704
0.08055079
0.0686124
0.0909508
0.08504748
0.08225078
0.08046207
0.07847967
0.07364388
0.05250696
0.04107446
0.03399641
0.02917312
0.02571733
0.02319839
0.02137149
0.02004339
0.01899761
0.01800539
0.01695257
0.01595938
0.01566804
0.01708687
0.02109796
0.02876871
0.04278657
0.07015576
0.07657708
0.07921462
0.08074635
0.08155057
0.08074296
0.06879252
0.09096377
0.08506025
0.08225043
0.08043086
0.07838295
0.07339455
0.05204013
0.04061921
0.03362067
0.02887546
0.02547896
0.02299384
0.0211669
0.0197912
0.01863562
0.01747083
0.01620991
0.01502736
0.01465293
0.01612052
0.02023727
0.02801567
0.04217153
0.06982762
0.07646645
0.07923079
0.08083619
0.08167611
0.08086845
0.06890935
0.09096905
0.0850628
0.08224055
0.08039192
0.07828156
0.07316463
0.05170653
0.04029332
0.03334278
0.02864734
0.0252895
0.02282548
0.02099352
0.01957304
0.01831797
0.01699648
0.01554492
0.01419001
0.01374556
0.01525777
0.01945809
0.02731284
0.04156668
0.06941249
0.07632174
0.0792099
0.08088135
0.08175229
0.08094673
0.06898225
0.09097156
0.08506263
0.08222916
0.08034878
0.07815633
0.07286484
0.05131695
0.03997071
0.03309885
0.02846108
0.02513969
0.02269305
0.02085665
0.01940161
0.01807184
0.01663331
0.01503553
0.01354143
0.01302582
0.01454556
0.01877535
0.02664567
0.04093449
0.06895681
0.07614869
0.0791628
0.08089581
0.0817943
0.08099266
0.06902531
0.0909735
0.08506305
0.08221952
0.08029863
0.07797088
0.07233246
0.05076835
0.03961465
0.0328753
0.02831012
0.02502603
0.02259531
0.02075804
0.01928482
0.01791804
0.01642426
0.01475341
0.01317333
0.01257387
0.01403325
0.01820144
0.02596272
0.04009948
0.06823277
0.07588836
0.07908695
0.08088926
0.08181371
0.08101727
0.0690488
0.09097516
0.08506423
0.08221317
0.08025108
0.07775549
0.07156536
0.05017055
0.03929623
0.03270126
0.02820291
0.02494913
0.02253087
0.02069718
0.01922569
0.01786686
0.01639251
0.0147409
0.01314584
0.01244956
0.01376755
0.01775996
0.02520208
0.03865273
0.06610882
0.07534647
0.07896458
0.08086809
0.08181913
0.08102851
0.06906
0.09097593
0.08506482
0.08221028
0.08022261
0.0775918
0.07069595
0.04977139
0.03913572
0.03262167
0.02815339
0.02491195
0.02249958
0.02067367
0.01922413
0.0179181
0.01653742
0.01499773
0.01346328
0.01266659
0.01377726
0.01752033
0.02453642
0.03660524
0.05721425
0.07439255
0.07882449
0.08084377
0.08181706
0.08103134
0.06906338
0.0909757
0.08506458
0.08221271
0.08024926
0.07774854
0.07153868
0.0501469
0.03926655
0.0326684
0.02817037
0.02491747
0.022503
0.0206881
0.01927667
0.01805642
0.01681928
0.01545164
0.01403945
0.01317217
0.01405858
0.01756155
0.02436777
0.03631186
0.05973244
0.07433185
0.07878454
0.08083113
0.0818117
0.0810283
0.06906114
0.09097487
0.08506419
0.08221763
0.08028195
0.07788885
0.07199168
0.05055744
0.03950292
0.03279718
0.02824345
0.02496382
0.02254142
0.02073945
0.0193749
0.01825442
0.01717598
0.01599399
0.01472582
0.0138372
0.01454792
0.01786632
0.02458229
0.03633631
0.0564258
0.07424188
0.07879069
0.08082766
0.08180316
0.08101949
0.06905329
0.09097394
0.0850646
0.0822268
0.08033302
0.07810114
0.07270877
0.05115305
0.03984229
0.03299157
0.02836418
0.02504862
0.02261483
0.02082677
0.01951237
0.01849256
0.01756597
0.01655683
0.0154286
0.01456224
0.01516749
0.0183913
0.02521175
0.03753482
0.06131726
0.07471178
0.0788664
0.08083156
0.08178881
0.08100249
0.06903763
0.09097328
0.08506664
0.08223871
0.08037637
0.07823709
0.07306181
0.05156659
0.04015181
0.03320795
0.02851956
0.02516934
0.02272354
0.02094961
0.01968532
0.01876154
0.01797308
0.01711659
0.0161142
0.01530029
0.01586548
0.01906989
0.0261055
0.03928735
0.06577189
0.07540313
0.07898129
0.08083374
0.08176275
0.08097256
0.06900983
0.0909722
0.08506943
0.08225271
0.08041679
0.07833734
0.0732865
0.05187522
0.04043641
0.03344206
0.02870845
0.02532678
0.02286814
0.02110703
0.01989096
0.01905751
0.01839429
0.017673
0.01678382
0.01604333
0.01661748
0.01983156
0.02703076
0.04083805
0.06842125
0.07597733
0.07907848
0.08081898
0.08171597
0.08092241
0.06896335
0.09096765
0.08506812
0.08226356
0.08045424
0.07843099
0.07350876
0.05224964
0.04079302
0.03373747
0.02894818
0.02552632
0.02304825
0.02129575
0.02012478
0.01937671
0.01882934
0.01823153
0.01744834
0.01679699
0.01741335
0.02063624
0.02785695
0.0417312
0.06922974
0.07622159
0.07911345
0.08077216
0.08163668
0.08084149
0.06888843
0.09095466
0.08505511
0.08226307
0.08048441
0.07853669
0.07384005
0.05315865
0.04148697
0.03420526
0.0292804
0.02578025
0.02326375
0.02151035
0.02037955
0.01971263
0.01927503
0.01879448
0.01811587
0.01756713
0.01825001
0.02148475
0.02866663
0.04244385
0.06969995
0.07636307
0.07910276
0.08068224
0.08151017
0.0807152
0.06877125
0.09092586
0.0850197
0.08223984
0.0805006
0.07868522
0.07451752
0.05619392
0.04309089
0.03502001
0.02975784
0.0261021
0.02351384
0.02174392
0.02064564
0.02005533
0.01972344
0.01935798
0.01878765
0.01835529
0.01912531
0.02238036
0.02950351
0.04313539
0.0701025
0.07645875
0.07904422
0.08053453
0.081318
0.080524
0.0685924
0.09087083
0.0849482
0.08218052
0.08048604
0.07880613
0.07529629
0.0632073
0.0450324
0.03597078
0.0303307
0.02648107
0.02379279
0.02198826
0.02091184
0.02039199
0.02016223
0.01991204
0.01945764
0.01915687
0.02003472
0.02332303
0.0303809
0.04383195
0.07040653
0.07650404
0.07892768
0.08031368
0.08103927
0.08024255
0.06832477
0.09077479
0.08482319
0.08206957
0.08042474
0.07888106
0.07568339
0.0616845
0.04625673
0.03691958
0.03096574
0.02690812
0.02409522
0.02223473
0.02116561
0.02070787
0.02057631
0.02044247
0.02011387
0.01996146
0.02097126
0.02431466
0.0313124
0.04455396
0.07065927
0.0765044
0.07875306
0.08001285
0.08065602
0.0798395
0.0679291
0.09061848
0.08462824
0.08190055
0.08031926
0.07891564
0.07625008
0.06678442
0.04798885
0.0380114
0.03170618
0.0274008
0.02442254
0.02247477
0.02139356
0.02098803
0.02095046
0.02093374
0.02074093
0.02075464
0.02192849
0.02536983
0.03234102
0.0453574
0.0709065
0.07649623
0.07855439
0.07965672
0.08017165
0.07928151
0.06734995
0.09038734
0.08437445
0.08171354
0.08023495
0.07902726
0.07682603
0.06638838
0.05012842
0.03961127
0.03273891
0.02802881
0.02479084
0.02270412
0.02158574
0.02122153
0.02127291
0.02137185
0.02132211
0.02151973
0.02290418
0.02653166
0.03358837
0.04642838
0.07127325
0.07660805
0.07846095
0.07936501
0.07967025
0.07854624
0.06653181
0.09012303
0.08421499
0.08174316
0.08045094
0.07948361
0.07802001
0.07347438
0.0544913
0.04236043
0.03432103
0.02887934
0.02522312
0.02292709
0.02174278
0.02140717
0.02153844
0.02174565
0.02183976
0.02223707
0.02389891
0.02788595
0.03534379
0.04832386
0.07217041
0.07723353
0.07886294
0.07953041
0.07952441
0.07789794
0.06537087
0.09016762
0.08487236
0.08289255
0.08194902
0.08129405
0.08035803
0.07765779
0.06762866
0.04802388
0.03685952
0.03001093
0.02572182
0.02314984
0.02187466
0.02154831
0.02173637
0.02202997
0.02225907
0.02286872
0.02489095
0.02953067
0.03817129
0.05266165
0.0749353
0.07953864
0.08086989
0.08129628
0.08097534
0.07858292
0.06396794
0.09241216
0.08934064
0.08844186
0.0880777
0.08785182
0.08751421
0.08634293
0.08137574
0.05584322
0.03990718
0.03114701
0.02617682
0.02334376
0.0219544
0.02156706
0.02172158
0.02202946
0.02238299
0.02324808
0.02570239
0.0312473
0.04232563
0.06279027
0.08393878
0.08709173
0.08779044
0.08800476
0.08781608
0.08603989
0.07249455
0.09016823
0.08487363
0.08289457
0.08195092
0.08129083
0.08033429
0.07757357
0.06735426
0.04723037
0.03648167
0.02985947
0.02562591
0.02301146
0.02160779
0.0210829
0.02105638
0.021213
0.0214828
0.0222619
0.02446829
0.02927902
0.03812819
0.05307741
0.07499883
0.07955468
0.08087949
0.0813054
0.0809844
0.07859057
0.06397012
0.08594212
0.07603635
0.07142138
0.06889511
0.06703783
0.06484727
0.0609332
0.05290932
0.04244806
0.03456551
0.02902466
0.02524637
0.02283458
0.0215232
0.02103821
0.02101952
0.02114155
0.02128364
0.0218206
0.02364588
0.02773665
0.03485567
0.04533647
0.05748145
0.06300685
0.06526595
0.06578324
0.06434076
0.05832819
0.03663218
0.08530988
0.07381667
0.06784343
0.06430937
0.06164018
0.05870326
0.05423029
0.04636507
0.03877256
0.03267877
0.02809718
0.02481051
0.0226273
0.0213843
0.02086485
0.02075323
0.0207543
0.02074858
0.02108788
0.02258996
0.02607487
0.03204992
0.04062471
0.05073698
0.0561831
0.05871711
0.05941376
0.05805647
0.05247396
0.03371555
0.08545189
0.07355078
0.0669844
0.06288249
0.05966333
0.05610288
0.05080115
0.04327564
0.03662873
0.03136464
0.02735498
0.02441753
0.02241367
0.02121767
0.02064335
0.02041129
0.02026151
0.02008861
0.02023588
0.02148564
0.0246026
0.03006051
0.03807012
0.04795204
0.05356516
0.05642328
0.05755511
0.05686507
0.05250587
0.0355168
0.08568279
0.07374865
0.06695351
0.06254794
0.05895278
0.05490381
0.04905246
0.04157826
0.0353277
0.03046991
0.02678452
0.02407056
0.02218822
0.02101342
0.0203691
0.02000096
0.01968243
0.01932956
0.01929469
0.02036605
0.0233041
0.02860488
0.03658765
0.04674833
0.05273504
0.05599478
0.05759815
0.05751774
0.05398362
0.03738717
0.08585944
0.07397616
0.06709611
0.06252344
0.05867556
0.0542541
0.04778864
0.04044647
0.03442423
0.0298047
0.02632184
0.023754
0.02194837
0.02077043
0.02004119
0.01952319
0.01902135
0.01848014
0.0182779
0.01923673
0.02212285
0.02744496
0.03559238
0.04615387
0.05257397
0.05622812
0.05822023
0.05854643
0.05542622
0.03873522
0.08597121
0.07413603
0.06721687
0.06253162
0.0584705
0.0536969
0.04663407
0.039402
0.03363673
0.02924
0.02592145
0.0234605
0.02170097
0.02049891
0.01966935
0.01898673
0.01828735
0.01755176
0.01720095
0.01810472
0.02102068
0.02644306
0.03480043
0.04574349
0.05258123
0.0565861
0.05887664
0.05945927
0.05653717
0.03965075
0.0860341
0.07422682
0.06728009
0.06250807
0.05826379
0.05315232
0.04532184
0.03840763
0.03295179
0.0287619
0.02557675
0.02319327
0.02145676
0.02021371
0.0192695
0.01840683
0.0174954
0.01656085
0.01608472
0.01698437
0.0199819
0.0255317
0.03408435
0.04533745
0.05255997
0.05687129
0.05939462
0.06014682
0.05732539
0.04026206
0.08606505
0.07426784
0.06729637
0.06245967
0.05809533
0.05280846
0.04471233
0.03782799
0.03248327
0.02839909
0.02529384
0.02295749
0.02122609
0.01993061
0.01886122
0.01780526
0.016669
0.01553393
0.01495999
0.01589864
0.01900702
0.02468445
0.03339524
0.04485964
0.05245284
0.05703595
0.05974864
0.0606228
0.05785963
0.04066459
0.08607702
0.07427818
0.06728233
0.0623928
0.05794036
0.05255636
0.04436168
0.03746294
0.03215638
0.02812435
0.02506492
0.02275563
0.02101884
0.01966625
0.01846838
0.01721403
0.01584849
0.01451877
0.01387505
0.0148804
0.01810673
0.02389737
0.03273279
0.044354
0.05226882
0.05709076
0.05996251
0.06093148
0.05820815
0.04092335
0.08607899
0.07427227
0.0672515
0.06231147
0.05777205
0.05231475
0.04407333
0.03717657
0.03190122
0.02790729
0.02488026
0.02258867
0.020843
0.01943664
0.01812036
0.01668252
0.01510406
0.01359852
0.0129026
0.01397301
0.01729681
0.02317229
0.03210497
0.04389093
0.05203428
0.057063
0.06007123
0.06111783
0.05842567
0.04108361
0.08607676
0.07425993
0.06721359
0.06221867
0.05757864
0.05202305
0.0437642
0.03690763
0.03168312
0.02773154
0.02473396
0.02245652
0.0207033
0.01925547
0.0178504
0.01627576
0.01453373
0.01288696
0.01213413
0.01322761
0.01659532
0.02250311
0.03148068
0.04339299
0.05175062
0.05697545
0.06010668
0.06121936
0.0585534
0.04117749
0.08607365
0.07424726
0.06717615
0.06212004
0.05735291
0.05163263
0.04340814
0.03664657
0.0314975
0.02759381
0.02462364
0.02235798
0.02060133
0.01913198
0.01768437
0.01604744
0.01422594
0.01249281
0.01165975
0.01269865
0.01602474
0.02187559
0.0307836
0.04272804
0.0513794
0.0568373
0.06009324
0.06126497
0.05862166
0.04122807
0.08607136
0.07423812
0.06714791
0.06203885
0.05714835
0.05122906
0.0430859
0.03643826
0.03136262
0.02749921
0.02454925
0.02229178
0.02053708
0.01907033
0.01763501
0.01602521
0.01423085
0.01248598
0.01154737
0.01243901
0.01562111
0.02129459
0.02991497
0.04160256
0.05084231
0.05665238
0.06005062
0.06127644
0.0586521
0.04125155
0.08607056
0.07423459
0.06713626
0.06200244
0.05704186
0.05096818
0.04292245
0.03634486
0.03130311
0.02745564
0.02451249
0.02225816
0.02051101
0.01907136
0.01770324
0.01621023
0.01455032
0.01287358
0.0118154
0.01248094
0.01543853
0.02087784
0.02909928
0.04008507
0.05029339
0.05648339
0.06000444
0.0612703
0.05865922
0.0412581
0.08607152
0.07423746
0.06714484
0.06203169
0.05713569
0.05121118
0.04306281
0.03641017
0.03133248
0.0274679
0.02451589
0.02225952
0.02052488
0.01913148
0.0178697
0.01655186
0.01509392
0.01355377
0.01240504
0.01281479
0.01551795
0.02077566
0.0288485
0.03982304
0.05011026
0.05641203
0.05997628
0.06125651
0.05865065
0.04125295
0.08607419
0.07424613
0.0671685
0.06209503
0.05728697
0.05149019
0.04330271
0.03656987
0.03143245
0.02753134
0.0245592
0.02229707
0.02057803
0.0192401
0.0180979
0.01696748
0.0157204
0.01433872
0.01316078
0.01336663
0.01584493
0.02098094
0.02901128
0.03984329
0.05017787
0.05643028
0.05996743
0.06123601
0.05862669
0.04123611
0.08607832
0.0742597
0.06720493
0.06219015
0.05751226
0.05191054
0.04365166
0.03680662
0.0315897
0.02763997
0.02464095
0.02237091
0.02066905
0.01938873
0.01836232
0.017404
0.01634643
0.01511497
0.01395994
0.01403934
0.01636591
0.02147218
0.02963509
0.04068971
0.05051521
0.05653155
0.05997115
0.06120208
0.05858078
0.04120261
0.08608303
0.0742756
0.06724556
0.06228485
0.05770995
0.05221999
0.0439591
0.03705572
0.03177972
0.02778583
0.02475945
0.02248085
0.0207964
0.01957236
0.01865293
0.01784611
0.0169512
0.0158508
0.01475124
0.01477577
0.0170227
0.02216297
0.03056289
0.04197735
0.05104508
0.05667837
0.05996736
0.06113996
0.05849937
0.0411427
0.08608646
0.07429001
0.0672842
0.06237052
0.05787669
0.05245389
0.04422347
0.03730583
0.03199564
0.02796686
0.02491463
0.02262655
0.02095829
0.01978774
0.01896678
0.01829431
0.01754061
0.01655472
0.01553049
0.01555456
0.01776827
0.02293396
0.03149647
0.04313314
0.05154165
0.05679869
0.05992484
0.06102696
0.05836153
0.04104144
0.08608503
0.07429667
0.06731463
0.06244702
0.05802925
0.05267748
0.04451362
0.03760028
0.03225928
0.02819248
0.02510919
0.0228068
0.02115116
0.02003055
0.01930148
0.01875158
0.01812524
0.01724414
0.01630921
0.01637133
0.01857675
0.02371938
0.03225357
0.04377974
0.05184616
0.05683832
0.05981151
0.06083357
0.05813762
0.0408768
0.08607288
0.0742858
0.0673275
0.06251243
0.05818714
0.05296163
0.04498315
0.03804514
0.03262469
0.02848581
0.02535011
0.02302039
0.02136965
0.02029402
0.01965162
0.01921692
0.0187107
0.01793158
0.0170985
0.01722741
0.01944339
0.0245381
0.03296091
0.04427089
0.05204744
0.05678969
0.05959738
0.06052279
0.05778691
0.04061709
0.08604114
0.07424311
0.067309
0.06256122
0.05837566
0.05339833
0.04594831
0.03881223
0.03316558
0.02887545
0.02564567
0.02326569
0.02160689
0.02056871
0.02000774
0.01968343
0.01929469
0.01862074
0.01790346
0.0181244
0.02037002
0.02541026
0.03368569
0.04472864
0.05217518
0.05663818
0.05924973
0.06004995
0.05725473
0.04021702
0.08597707
0.07414975
0.06724142
0.06257589
0.05855558
0.053873
0.04710079
0.03970333
0.03382124
0.02935011
0.02599422
0.02353883
0.02185455
0.02084281
0.02035659
0.02013868
0.01986745
0.01930627
0.01872136
0.01906085
0.02136025
0.02635291
0.03446501
0.04522888
0.05224222
0.05637698
0.0587448
0.0593702
0.05647219
0.039611
0.08586388
0.07398675
0.06711522
0.0625574
0.05873729
0.05436414
0.04798428
0.04063179
0.03456615
0.02990301
0.02639403
0.02383527
0.02210293
0.02110248
0.02068235
0.02056676
0.02041402
0.01997573
0.01954218
0.02003189
0.02242176
0.02739233
0.03533297
0.04575429
0.05229379
0.05605068
0.05810623
0.0584684
0.05536941
0.0387026
0.08568569
0.07375592
0.06696742
0.06257442
0.05900484
0.05500233
0.04922271
0.04175678
0.03547382
0.03057441
0.02686135
0.0241545
0.02234179
0.02133315
0.02096919
0.02095166
0.02091794
0.0206127
0.02035079
0.02103125
0.02357387
0.02859247
0.03640522
0.04645641
0.05251642
0.05585209
0.05750419
0.0574521
0.05393564
0.03736246
0.08545334
0.07355499
0.06699382
0.06290433
0.05971726
0.05623057
0.05104669
0.04352813
0.03682847
0.0314996
0.02744557
0.02450562
0.02256497
0.02152463
0.02120636
0.02128169
0.02136507
0.02120014
0.02112956
0.02205356
0.02485565
0.03008705
0.03795639
0.04774921
0.05340393
0.05631463
0.05748119
0.05681183
0.05246686
0.03549944
0.08531024
0.07381843
0.06784863
0.0643238
0.06167947
0.0587992
0.05441494
0.04662262
0.03901591
0.03284407
0.02820137
0.0249019
0.02277531
0.02167872
0.02139437
0.02155337
0.02174605
0.0217222
0.02185882
0.02309101
0.02632355
0.03211114
0.04056159
0.05060059
0.05607201
0.05864057
0.05935972
0.05801572
0.05244338
0.03370411
0.08594184
0.07603637
0.07142286
0.06890163
0.06705937
0.0649038
0.06105329
0.05312466
0.04276451
0.03476011
0.02913328
0.02533661
0.02297877
0.02180693
0.02153884
0.02175913
0.02203951
0.02214802
0.02250132
0.02410533
0.02799177
0.0349394
0.0452632
0.05738416
0.06294096
0.06522223
0.06575132
0.0643151
0.05830781
0.03662539
0.09016769
0.08487256
0.08289299
0.08194956
0.0812928
0.08034703
0.07762178
0.06754722
0.04793411
0.03680819
0.02999074
0.02571773
0.02315273
0.02188157
0.02155903
0.02175102
0.02204784
0.0222779
0.02288591
0.0249053
0.02954185
0.03817881
0.05266481
0.07493406
0.07953871
0.08087099
0.08129773
0.08097686
0.07858438
0.06396887
0.09012359
0.08421613
0.08174489
0.08045129
0.07947224
0.07796322
0.07329786
0.05411901
0.04197581
0.03409052
0.02875598
0.02513258
0.02279301
0.02148132
0.02094258
0.02084586
0.02090122
0.02103353
0.021618
0.02349072
0.02765591
0.03525032
0.04834247
0.07221162
0.07726697
0.07888811
0.07955116
0.07954218
0.07791185
0.06537606
0.0853099
0.07381679
0.06784372
0.0643099
0.06164109
0.05870461
0.05423223
0.04636762
0.03877501
0.03268078
0.02809915
0.02481369
0.02263403
0.02139819
0.0208903
0.02079396
0.02081066
0.02081613
0.02115466
0.02264139
0.02610404
0.03206058
0.04062455
0.05073223
0.05618334
0.05872165
0.05942031
0.05806365
0.0524809
0.03371971
0.08437227
0.07075732
0.06286371
0.05789813
0.05420573
0.05070451
0.04663362
0.04133605
0.0359196
0.03116602
0.02733497
0.02444658
0.02245058
0.02125767
0.02069645
0.02049186
0.02037974
0.02024003
0.02038475
0.02154048
0.02434734
0.02899226
0.0350984
0.04147759
0.04595389
0.04829128
0.04866445
0.04655857
0.03999373
0.02317419
0.0843934
0.07015378
0.06137317
0.05559728
0.05126764
0.0473778
0.04328417
0.03864045
0.03407368
0.03002718
0.02668803
0.02410224
0.02225728
0.02109137
0.02045854
0.02011964
0.01984995
0.01954539
0.01949837
0.02038078
0.02273718
0.02665367
0.03173784
0.03706308
0.04112194
0.04341622
0.04389843
0.04206395
0.0362512
0.02152637
0.08457879
0.0702375
0.06110135
0.05490226
0.05016762
0.04596012
0.04168593
0.03718248
0.03293484
0.02922939
0.02617381
0.02378594
0.02204433
0.02088437
0.02016697
0.01967891
0.01923354
0.01874941
0.01851709
0.01919643
0.02129855
0.02489973
0.02967603
0.03485392
0.03902026
0.0416044
0.04253917
0.04137509
0.03653528
0.02260544
0.0847369
0.07043019
0.06116293
0.05474882
0.04976123
0.04531249
0.04083577
0.03632067
0.03218916
0.02865037
0.02575595
0.02349003
0.02180916
0.02063272
0.01981659
0.01916502
0.01852767
0.01785276
0.01744863
0.0179956
0.01999478
0.02352854
0.02833236
0.03371099
0.03823773
0.04126132
0.04271001
0.04214766
0.03794688
0.02395104
0.08483947
0.07057874
0.06125862
0.05472324
0.04956145
0.04492249
0.04024174
0.03568864
0.03162506
0.02819269
0.02540189
0.02321219
0.02156033
0.02034667
0.01941574
0.01858356
0.01773677
0.01686204
0.01630687
0.01678919
0.01879403
0.02239429
0.02736107
0.03304158
0.03798954
0.04145246
0.04333762
0.04319791
0.03933499
0.02498977
0.0848966
0.07066397
0.06131372
0.05469855
0.04940752
0.04462343
0.03975552
0.03518312
0.03117576
0.02782018
0.02509945
0.02295652
0.02131114
0.02004318
0.01898068
0.01794768
0.01687162
0.0157899
0.015113
0.01559499
0.01767966
0.02140789
0.02656879
0.03253392
0.03788184
0.04172857
0.04395412
0.04409653
0.04040483
0.02570725
0.08492335
0.0707006
0.06132608
0.05465391
0.04927216
0.04439981
0.03943119
0.03482665
0.03083872
0.02752441
0.02484533
0.02272821
0.02107471
0.01974078
0.01853196
0.01727715
0.01595157
0.01466002
0.01389965
0.01443872
0.01664818
0.02052273
0.02586674
0.03208302
0.03775691
0.04192337
0.04441342
0.04475092
0.04115327
0.02618266
0.08493196
0.07070675
0.06130926
0.05459251
0.0491462
0.04421732
0.03919298
0.03456285
0.03058025
0.02728831
0.02463428
0.02253116
0.02086262
0.01945807
0.01809481
0.01660399
0.01501654
0.01352323
0.01272112
0.01335647
0.01570566
0.01971755
0.02521579
0.0316362
0.03757208
0.04200304
0.04470327
0.04518437
0.04164736
0.02648767
0.08493098
0.07069673
0.06127656
0.05452108
0.04902691
0.04404896
0.03898892
0.03434618
0.03037111
0.02709695
0.02446137
0.0223673
0.02068287
0.01921192
0.01770283
0.01598749
0.01415201
0.01248115
0.01166318
0.01239602
0.01486541
0.01898606
0.02460468
0.03119121
0.03733308
0.04198376
0.04485525
0.04544797
0.04195664
0.02667539
0.08492606
0.07068043
0.06123815
0.05444522
0.04890415
0.04387569
0.03879344
0.03415476
0.03019692
0.0269426
0.02432329
0.02223605
0.02053861
0.0190165
0.01739833
0.01551642
0.01349111
0.01167983
0.01083325
0.01161273
0.01414689
0.0183294
0.02402475
0.03073612
0.03705034
0.04189195
0.04490825
0.04559136
0.04213768
0.02678406
0.08492064
0.07066444
0.06120233
0.05437368
0.04878398
0.0436974
0.03860742
0.03398955
0.03005749
0.02682409
0.02421825
0.02213554
0.02043029
0.01888199
0.01721418
0.01526088
0.01314781
0.01125035
0.01033102
0.01106399
0.01357814
0.01775664
0.0234653
0.03024704
0.03672521
0.04175012
0.04489643
0.04565507
0.04223331
0.02684122
0.08491671
0.070653
0.0611765
0.05432029
0.0486902
0.04355011
0.03846282
0.03386986
0.02996149
0.026744
0.02414604
0.02206478
0.02035828
0.01881382
0.01716579
0.01525322
0.01318094
0.01127294
0.01023188
0.0108079
0.01320085
0.01729726
0.02293512
0.02970194
0.03636241
0.04158206
0.04484939
0.04567057
0.04227481
0.0268664
0.08491524
0.07064856
0.0611661
0.05429811
0.04864972
0.04348097
0.03839952
0.03381863
0.02991934
0.02670623
0.02410816
0.02202513
0.02032456
0.01881424
0.01725616
0.0154984
0.01359667
0.01175982
0.01056189
0.01088386
0.01306173
0.01701784
0.02254177
0.02923445
0.03606085
0.04144017
0.04479759
0.04566161
0.04228366
0.02687241
0.0849166
0.07065199
0.06117318
0.05431325
0.04867909
0.04353491
0.0384435
0.03384735
0.02993614
0.02671374
0.02410783
0.02202124
0.02033365
0.01888042
0.01746033
0.01592905
0.01427742
0.01259045
0.0112552
0.01127989
0.0131853
0.01697793
0.022413
0.02907039
0.03593695
0.04137265
0.04476281
0.0456421
0.04227143
0.02686613
0.08492068
0.0706628
0.06119564
0.0543573
0.04875408
0.04364871
0.03855696
0.0339402
0.03000629
0.02676533
0.02414643
0.02205618
0.02038666
0.0189997
0.01772761
0.01642747
0.01502603
0.01351537
0.01212784
0.01191112
0.0135521
0.0171838
0.02255053
0.02916716
0.03599035
0.04138479
0.04474841
0.04561353
0.0422386
0.02684752
0.08492695
0.07067957
0.06123049
0.05442466
0.04886671
0.04381859
0.03872724
0.03408466
0.03012196
0.02685756
0.02422331
0.02213028
0.02048198
0.01916166
0.01802504
0.01692493
0.01573749
0.01439091
0.01302036
0.01265373
0.01409579
0.01760467
0.02293916
0.0295311
0.03620928
0.04146661
0.0447448
0.04556604
0.04217529
0.02681025
0.08493421
0.07069944
0.06127153
0.05450087
0.04898722
0.04398813
0.03891126
0.03425668
0.03027185
0.02698593
0.0243369
0.02224226
0.02061652
0.01935988
0.01834315
0.01741118
0.01640027
0.01519232
0.01387788
0.01344216
0.01475872
0.01818557
0.02350897
0.03007712
0.03653718
0.04158199
0.04472732
0.04547844
0.04206154
0.02674219
0.08494036
0.07071804
0.06131208
0.05457628
0.04910399
0.04414693
0.0390959
0.03444587
0.03045027
0.02714807
0.02448598
0.02239032
0.02078698
0.0195903
0.0186808
0.01789334
0.01703143
0.01594095
0.01470276
0.01425737
0.01550657
0.01886778
0.02415076
0.0306472
0.03686718
0.04167296
0.04465858
0.04531858
0.04186679
0.02662498
0.08494185
0.0707289
0.06134516
0.05464674
0.04922328
0.04430984
0.03929833
0.03466504
0.03066473
0.02734729
0.02467069
0.02257202
0.02098907
0.01984861
0.01903751
0.01837928
0.01764931
0.01666372
0.01551467
0.0151016
0.01632397
0.01961812
0.02480289
0.03114288
0.03712884
0.04169292
0.04449829
0.04504517
0.04154884
0.02643212
0.08493305
0.07072223
0.06136106
0.05470728
0.04935197
0.04449918
0.03955814
0.03494788
0.0309362
0.0275937
0.02489349
0.0227847
0.021217
0.02012822
0.01940921
0.01887105
0.01826411
0.01737918
0.01633119
0.01598258
0.01720872
0.02043545
0.02548275
0.03160867
0.03732773
0.04161842
0.04420783
0.04460891
0.04105172
0.02612591
0.08490548
0.07068385
0.06134632
0.05475007
0.04949027
0.04473802
0.0399336
0.03534137
0.03129318
0.0279012
0.02515821
0.02302529
0.02146313
0.02041934
0.01978681
0.0193631
0.01887579
0.01809409
0.01716131
0.0169064
0.0181653
0.02133171
0.02621799
0.03208296
0.03747714
0.0414393
0.04375689
0.04395886
0.04030594
0.02565321
0.08484703
0.07059581
0.06128686
0.05476786
0.04963029
0.04502
0.0403858
0.03582762
0.03173759
0.02827618
0.02546709
0.02328964
0.02171771
0.02070872
0.02015626
0.01984299
0.01947502
0.01880389
0.01800365
0.01787424
0.01920208
0.02233154
0.02705351
0.03262492
0.03762606
0.04119072
0.04315701
0.04307065
0.03924359
0.02494174
0.08474287
0.07044385
0.06118587
0.05478539
0.0498173
0.04539
0.04094207
0.03643387
0.03229052
0.02873206
0.02582446
0.02357289
0.0219687
0.02098022
0.02050016
0.02029389
0.02004624
0.01949542
0.01884759
0.01888184
0.02033271
0.02348222
0.02807785
0.03335574
0.03792779
0.04103484
0.04255122
0.04203448
0.0378659
0.02391105
0.08458306
0.07024764
0.06111926
0.05493249
0.05021687
0.0460327
0.04178822
0.03729653
0.03304053
0.0293162
0.026247
0.02387242
0.0222034
0.02121731
0.02080146
0.02069914
0.02057241
0.02015127
0.01967639
0.01992152
0.02158036
0.02487177
0.02947575
0.03456635
0.03876602
0.04141496
0.04240349
0.04127673
0.03646503
0.02257384
0.08439611
0.07016076
0.0613869
0.05562335
0.05131593
0.04745919
0.04341058
0.03878411
0.03420474
0.03013061
0.02676979
0.02419164
0.02241374
0.02140958
0.02104993
0.02104798
0.02104041
0.02075501
0.02047193
0.02098509
0.02298132
0.02664636
0.03158739
0.03683862
0.04091878
0.04326213
0.04378563
0.04198027
0.03619105
0.02150191
0.08437368
0.07076164
0.06287356
0.05791924
0.05424891
0.05078367
0.04676286
0.04150031
0.03607685
0.03128753
0.02742511
0.02453733
0.02260279
0.02156145
0.02124953
0.02134085
0.02144537
0.02129554
0.02121802
0.02206223
0.0245757
0.02901211
0.03499374
0.04130879
0.04579727
0.04817319
0.04857741
0.04649252
0.03994506
0.02315565
0.08531032
0.07381868
0.06784907
0.06432379
0.06167464
0.05877481
0.0543521
0.04653293
0.03894895
0.0328103
0.02819066
0.02490263
0.02278155
0.02168946
0.02141032
0.02157451
0.02177094
0.02174823
0.02188376
0.02311267
0.02634014
0.03212227
0.04056705
0.05060151
0.05607722
0.05864701
0.05936625
0.05802196
0.05244912
0.03370758
0.09012317
0.08421545