/*--------------------------------*- C++ -*----------------------------------*\
| =========                 |                                                 |
| \\      /  F ield         | OpenFOAM: The Open Source CFD Toolbox           |
|  \\    /   O peration     | Version:  2506                                  |
|   \\  /    A nd           | Website:  www.openfoam.com                      |
|    \\/     M anipulation  |                                                 |
\*---------------------------------------------------------------------------*/
FoamFile
{
    version     2.0;
    format      ascii;
    arch        "LSB;label=32;scalar=64";
    class       volScalarField;
    location    "350/airRegion";
    object      nut;
}
// * * * * * * * * * * * * * * * * * * * * * * * * * * * * * * * * * * * * * //

dimensions      [0 2 -1 0 0 0 0];

internalField   nonuniform List<scalar> 
85779
(
0.09218032
0.09255107
0.09235004
0.09211845
0.09186624
0.09141694
0.0901914
0.08617245
0.07415952
0.06855246
0.06661863
0.06715287
0.06963805
0.07380921
0.07890899
0.08328189
0.08455868
0.08017193
0.07224225
0.06574885
0.06380517
0.06759539
0.07986982
0.08844357
0.09064644
0.09109705
0.09072074
0.0881758
0.07419926
0.0201547
0.09228584
0.09278394
0.09241065
0.09188562
0.09127284
0.09025887
0.08789393
0.08203866
0.07396662
0.07001044
0.06840411
0.06868874
0.07076021
0.07448742
0.07916571
0.08322757
0.08442766
0.08028016
0.0725731
0.06626942
0.06446447
0.06758733
0.0751337
0.08493001
0.08840284
0.08915125
0.08839936
0.08455174
0.06886837
0.01893254
0.09210905
0.09234002
0.09175036
0.09101176
0.09015784
0.08874021
0.08531995
0.07852836
0.07396368
0.07123238
0.06997959
0.07015995
0.07187308
0.07506772
0.07912513
0.08265192
0.08363284
0.0797168
0.07219022
0.0658242
0.06363365
0.06582691
0.07184579
0.08253655
0.08635552
0.08719407
0.0864857
0.08293486
0.06863225
0.0191393
0.09206419
0.09210575
0.09134423
0.0904489
0.08940631
0.08752932
0.08267633
0.07649827
0.07307107
0.07124976
0.07051005
0.07085591
0.07243743
0.07523043
0.07869445
0.08162953
0.08229923
0.07852347
0.07104116
0.06443156
0.06179389
0.06347321
0.06931508
0.08120361
0.08517926
0.08610104
0.0855897
0.08257179
0.06943157
0.01930892
0.09208081
0.09203798
0.09117547
0.09017481
0.08898701
0.08686406
0.08191713
0.07502521
0.07210709
0.07076491
0.07039517
0.07093744
0.07248189
0.0749646
0.07787881
0.08019443
0.08047292
0.07675638
0.06927646
0.06247109
0.05964842
0.06133507
0.06758822
0.08049222
0.08461075
0.08563417
0.08531803
0.08270252
0.07024569
0.0194278
0.09210828
0.09203318
0.09111582
0.0900458
0.08874049
0.08623562
0.07994066
0.07398069
0.07129344
0.07024014
0.07010641
0.07076436
0.0722401
0.07440816
0.07675767
0.07839626
0.07819502
0.07448257
0.06705716
0.06023198
0.05753606
0.05956423
0.06638843
0.08008486
0.08435166
0.085478
0.08530949
0.08292533
0.07064842
0.01951178
0.09213002
0.09204213
0.09109245
0.08996933
0.08854778
0.0857026
0.07862261
0.07333038
0.07105783
0.07013668
0.07002213
0.07062357
0.07191895
0.07370216
0.07542114
0.0762923
0.0755126
0.07176573
0.06449522
0.05785808
0.0555412
0.05807876
0.06547814
0.0798146
0.08422797
0.08544774
0.08538525
0.08313982
0.07092974
0.01956905
0.09214346
0.09204888
0.0910779
0.08991197
0.08836775
0.08507716
0.07750497
0.07341181
0.07129716
0.07028917
0.0700594
0.07051589
0.07156948
0.07291567
0.07393634
0.07394483
0.07249287
0.06868389
0.06167691
0.05541681
0.05365781
0.05677703
0.06471443
0.07960038
0.0841542
0.08545583
0.08546997
0.08331136
0.07112939
0.01960773
0.09215024
0.09205065
0.09106518
0.08987131
0.08826
0.08476599
0.07670437
0.07294979
0.0710702
0.07016285
0.06994501
0.07032722
0.07117198
0.07208243
0.07236903
0.07144796
0.06925881
0.06537107
0.05871288
0.052968
0.05187367
0.05559166
0.06402286
0.07940279
0.08409185
0.08546595
0.08553746
0.08343559
0.0712662
0.01963348
0.09215266
0.09204844
0.09105205
0.08983825
0.08818705
0.08460424
0.07628501
0.07254753
0.07076448
0.0699399
0.06975863
0.07010102
0.07076901
0.07126685
0.07082754
0.06897289
0.06603826
0.06206405
0.05578551
0.05060823
0.05020053
0.05448939
0.06336977
0.079202
0.08402472
0.08546537
0.08558223
0.08351927
0.07135622
0.01965017
0.0921527
0.09204381
0.09103757
0.08980494
0.08811707
0.08447372
0.07601251
0.07228035
0.0705523
0.0697759
0.06961247
0.06991441
0.07042629
0.07056031
0.06947693
0.06679215
0.06318698
0.05911912
0.05317145
0.04849184
0.04868343
0.05345859
0.0627299
0.078971
0.08394182
0.08545003
0.08560614
0.0835716
0.0714127
0.01966059
0.09215175
0.0920381
0.09102125
0.08976511
0.08802644
0.08431161
0.07578797
0.07214318
0.07048263
0.06973035
0.06955738
0.0698083
0.07018997
0.07005043
0.06850033
0.06521866
0.06111284
0.05695062
0.05121627
0.04683154
0.04741046
0.05250424
0.06204881
0.07868157
0.08382555
0.08541568
0.08561222
0.08360089
0.07144594
0.01966674
0.09215067
0.09203251
0.09100385
0.08971599
0.08790066
0.08409116
0.07563344
0.07215247
0.07054312
0.06978108
0.06957531
0.06977421
0.07006976
0.06978622
0.06801837
0.06447068
0.06013234
0.0559226
0.05026545
0.04588147
0.04654079
0.0516976
0.06124778
0.07815922
0.08361163
0.08534896
0.08560189
0.08361363
0.07146364
0.0196701
0.0921499
0.09202829
0.09098925
0.08966801
0.08775918
0.08381906
0.07556462
0.07225102
0.07065611
0.06986157
0.06961695
0.06977999
0.07005309
0.06978303
0.06808868
0.06466693
0.06044136
0.05628023
0.05056649
0.04586911
0.04630246
0.0512967
0.06040935
0.07685681
0.08316497
0.08523069
0.08557656
0.083615
0.07147141
0.0196717
0.0921496
0.09202653
0.0909826
0.08964143
0.08766465
0.08361276
0.07559963
0.07232585
0.07070739
0.0698915
0.06963125
0.06979514
0.07012532
0.07004341
0.06874113
0.06587283
0.06212537
0.0580915
0.05213173
0.04676498
0.04662059
0.05132096
0.05988782
0.07298332
0.08240936
0.08509111
0.08554828
0.08361083
0.07147304
0.0196722
0.09214987
0.09202771
0.09098762
0.08966352
0.08774444
0.08377775
0.07550147
0.07219363
0.07061907
0.06983746
0.06960051
0.06980777
0.07026982
0.07052659
0.06988347
0.06791883
0.06493678
0.06109044
0.05470317
0.04835676
0.04724996
0.05140199
0.05955899
0.07358411
0.08231761
0.08504592
0.08553469
0.08360574
0.07147061
0.01967188
0.09215068
0.09203125
0.09099915
0.08970042
0.08785362
0.08400395
0.07561601
0.07214954
0.07052608
0.0697514
0.06954552
0.06982249
0.070461
0.07112859
0.07125438
0.07033628
0.06825367
0.06464125
0.05773026
0.0503381
0.04817304
0.05179658
0.05983321
0.07246616
0.08226034
0.08505439
0.08553436
0.08360007
0.07146424
0.01967076
0.09215197
0.09203663
0.09101566
0.08974997
0.08798857
0.08423746
0.07570976
0.07208453
0.07042451
0.06966357
0.06949669
0.06985674
0.07068692
0.07176955
0.07264122
0.07272852
0.07152878
0.06816839
0.06073376
0.05235806
0.04918469
0.05231433
0.06041724
0.07468662
0.08266839
0.08513454
0.08554601
0.08359197
0.07145221
0.01966852
0.09215351
0.09204273
0.09103197
0.08979098
0.08808724
0.08441734
0.07590362
0.07215814
0.07042679
0.0696487
0.06950504
0.06994179
0.07095509
0.07241988
0.07395389
0.07491966
0.07449564
0.07135385
0.06344782
0.05425524
0.05023903
0.0529433
0.06126434
0.07695046
0.08323608
0.08525417
0.08556094
0.08357662
0.07143101
0.01966454
0.09215478
0.09204852
0.09104658
0.08982344
0.08815623
0.08454371
0.07613673
0.07236281
0.07057514
0.06975821
0.06961052
0.07010205
0.07127642
0.07308007
0.07518454
0.07688789
0.07710245
0.07411145
0.06581901
0.05607049
0.05147522
0.05381691
0.06220959
0.07836977
0.08368897
0.08535485
0.08556434
0.08354657
0.07139515
0.01965789
0.09215489
0.09205305
0.09105992
0.08985315
0.08821914
0.0846756
0.07645952
0.07267429
0.07082235
0.06995078
0.06978289
0.07031682
0.0716389
0.07374999
0.07635166
0.07867144
0.07939185
0.07646809
0.06787308
0.05782217
0.05288863
0.05491143
0.063085
0.07892814
0.08388852
0.08539823
0.08554507
0.08349364
0.07133703
0.01964717
0.09215241
0.09205503
0.0910726
0.08988691
0.08830431
0.08491074
0.07705405
0.07304999
0.07104873
0.07011598
0.06994022
0.07053104
0.07200983
0.07441867
0.07747035
0.08031361
0.08142446
0.07848214
0.069653
0.05948963
0.05436411
0.05605203
0.06384618
0.07922895
0.08399233
0.08540897
0.08550225
0.08340974
0.07124649
0.01963044
0.09214541
0.09205287
0.09108526
0.08993163
0.0884422
0.08537248
0.07790817
0.07305782
0.07092058
0.07006257
0.06997918
0.07068755
0.07235642
0.07507046
0.07854435
0.08184096
0.08324527
0.08020717
0.07120907
0.0610835
0.05587556
0.05723468
0.06459307
0.07948054
0.08407304
0.0854046
0.08543643
0.08328606
0.07111031
0.01960486
0.09213165
0.09204555
0.09109878
0.08998484
0.08859778
0.08597562
0.0799294
0.0733246
0.07095957
0.07004303
0.07000205
0.0708223
0.0726829
0.07569596
0.0795654
0.08325713
0.08487287
0.08167751
0.07258605
0.06263675
0.05745239
0.05851158
0.06540169
0.07972626
0.08416015
0.08540186
0.085354
0.08311592
0.07091223
0.01956655
0.09210954
0.0920359
0.09112082
0.09005692
0.08877048
0.08633245
0.080272
0.07417691
0.0713902
0.07028322
0.07017386
0.07101377
0.0730016
0.0762731
0.08050347
0.08453963
0.08629796
0.082902
0.07380544
0.06417566
0.05914352
0.05996292
0.06635342
0.08002189
0.08429629
0.08543803
0.08528121
0.08290338
0.07063265
0.0195098
0.09208167
0.09204003
0.09117961
0.09018453
0.08901283
0.08693365
0.08207819
0.07520421
0.07221784
0.07082382
0.07047728
0.07119784
0.07322719
0.07671794
0.08128976
0.08563844
0.08748639
0.08385973
0.07484305
0.06567896
0.06097764
0.06169509
0.06758808
0.08045137
0.08456738
0.08560051
0.08529315
0.08268231
0.07022692
0.01942643
0.09206467
0.09210723
0.09134792
0.09045916
0.08943568
0.08760742
0.0828161
0.07662467
0.0731009
0.07122033
0.07052202
0.0710689
0.07313631
0.07687664
0.08182258
0.08648563
0.08838767
0.08449908
0.07560627
0.0670209
0.06288205
0.06379048
0.0693365
0.08118011
0.08514684
0.08607382
0.08556865
0.08255424
0.06941486
0.01930807
0.09210928
0.09234101
0.09175323
0.09102006
0.09018116
0.08880066
0.08545322
0.07874621
0.07406732
0.07119305
0.069951
0.07032827
0.07252109
0.07661732
0.0820176
0.08702107
0.08895146
0.08475175
0.07593436
0.06791582
0.06452671
0.06610086
0.07185657
0.08251941
0.08633211
0.08717352
0.08646921
0.08292089
0.06862005
0.01913886
0.09228591
0.09278448
0.09241244
0.09189101
0.0912879
0.09029728
0.08798826
0.08229746
0.07435105
0.07010279
0.06846263
0.06890059
0.07140192
0.07597121
0.08187603
0.0872151
0.08914067
0.08457611
0.07568157
0.06798448
0.06522105
0.06783578
0.07499246
0.08487628
0.08838314
0.08913788
0.08838876
0.08454245
0.06886035
0.01893237
0.0921803
0.09255115
0.09235049
0.09212012
0.09187165
0.0914341
0.09025785
0.08650374
0.0750014
0.06846571
0.06658447
0.06737682
0.07028708
0.07525513
0.08150265
0.08702808
0.0888868
0.08400685
0.07494882
0.06723215
0.06452332
0.06788367
0.07784695
0.08817789
0.09061979
0.09109141
0.09071738
0.08817275
0.07419637
0.02015469
0.09228584
0.09278395
0.09241066
0.09188566
0.09127296
0.09025915
0.08789449
0.08203997
0.07396867
0.07001309
0.06840863
0.0686987
0.07078362
0.0745392
0.07926625
0.08339075
0.08464064
0.08049896
0.07275185
0.06638637
0.06452692
0.06761487
0.07514316
0.08493275
0.08840382
0.08915174
0.0883998
0.08455245
0.06886963
0.01893268
0.09172563
0.09311133
0.09345406
0.09288311
0.09172371
0.08981012
0.086429
0.0811214
0.07571564
0.07208796
0.07027582
0.07019196
0.07185946
0.07517963
0.07948445
0.083289
0.08445139
0.08055011
0.07304234
0.06681957
0.06501714
0.06781573
0.07390458
0.08077442
0.08459935
0.08534008
0.08309598
0.0753926
0.05486607
0.01432702
0.09096678
0.09183767
0.09231325
0.09184292
0.090568
0.08841212
0.0848717
0.08060354
0.07657772
0.0736039
0.0719195
0.07165415
0.07293763
0.07571264
0.07938531
0.0826392
0.08356642
0.07990847
0.07266247
0.06646987
0.06439423
0.06650814
0.07141031
0.07712744
0.08057548
0.08107615
0.0783525
0.07015526
0.05048868
0.01374487
0.09065416
0.09093652
0.09103047
0.09032692
0.08886118
0.08655863
0.08313081
0.07936727
0.0761952
0.07388616
0.07256411
0.07237984
0.07348316
0.07582782
0.07888619
0.08152516
0.08211918
0.07861364
0.07150853
0.06516789
0.06267325
0.06417384
0.06842598
0.07380997
0.07717056
0.0777874
0.07545163
0.06820336
0.05019817
0.01410728
0.09057816
0.09055993
0.09031965
0.0893292
0.0876227
0.08511655
0.08165435
0.07809751
0.07533494
0.07345588
0.07246632
0.07244492
0.07348485
0.07549883
0.07798489
0.07997344
0.08014637
0.07670344
0.06967651
0.06317712
0.06041295
0.0616822
0.06588818
0.0715335
0.07511777
0.0760917
0.07439296
0.06818887
0.05132041
0.01447399
0.09058096
0.09044387
0.09001076
0.08881248
0.08689411
0.08412879
0.08050989
0.07699909
0.0744589
0.07285051
0.07208884
0.07218384
0.07315725
0.07485139
0.07674963
0.07802002
0.07767479
0.07423214
0.06731378
0.06079325
0.05804895
0.05947676
0.06402003
0.0701746
0.0741163
0.07548983
0.07434199
0.06886497
0.05253503
0.01473266
0.0905988
0.09041835
0.0898822
0.08854817
0.08646469
0.08345026
0.07970496
0.07634868
0.07397088
0.07247966
0.07178884
0.07188029
0.0727088
0.07402498
0.07526157
0.07570638
0.07473593
0.07125691
0.06454112
0.05820446
0.05576984
0.05762318
0.06266798
0.06937446
0.0736784
0.07539941
0.07465287
0.06962966
0.0535344
0.0149058
0.09061246
0.09041362
0.08981927
0.08839638
0.08618649
0.08293858
0.07919817
0.07603929
0.07374964
0.07228417
0.07158049
0.0715991
0.07222562
0.07310157
0.07358312
0.07307926
0.07138262
0.06785344
0.06145868
0.05551382
0.05361949
0.05604536
0.06163023
0.06884975
0.07347523
0.07547535
0.07500941
0.07026724
0.05427403
0.01502033
0.09061887
0.09040824
0.08977822
0.08829973
0.08600873
0.08260005
0.07870769
0.07561378
0.07342175
0.0720239
0.07134025
0.07130266
0.07172519
0.07212895
0.07177843
0.0702239
0.06773357
0.06416252
0.05819324
0.05280322
0.05159807
0.05465506
0.06076181
0.06842881
0.07333876
0.0755628
0.07529649
0.07073459
0.05478947
0.01509531
0.09061955
0.09039788
0.08974263
0.08822685
0.08588572
0.08237755
0.07837398
0.07526549
0.07311466
0.07176505
0.07110347
0.07102009
0.07124772
0.07117522
0.06996489
0.06732955
0.06404417
0.06045009
0.05495254
0.05018731
0.04971644
0.05338983
0.05997241
0.06803589
0.07320149
0.07560852
0.07549037
0.07105064
0.05513372
0.01514334
0.09061673
0.09038324
0.08970612
0.08815897
0.08578003
0.08220388
0.07814446
0.07503093
0.07290403
0.07158112
0.07092719
0.07079644
0.07084624
0.07034178
0.06835036
0.06474481
0.06075338
0.05713299
0.05205245
0.04784136
0.04801954
0.05221888
0.05919829
0.06760245
0.0730351
0.07560083
0.07560041
0.07124919
0.05535401
0.01517303
0.0906123
0.0903663
0.08966711
0.08808712
0.0856706
0.08205006
0.07799411
0.07491387
0.07281231
0.07149862
0.07083426
0.0706534
0.07056131
0.06973751
0.06718648
0.06289239
0.05837152
0.0546907
0.0498807
0.04599979
0.04660475
0.05116668
0.05842903
0.0671154
0.07281219
0.07553703
0.07564302
0.07136203
0.05548713
0.01519042
0.09060782
0.09034998
0.08962871
0.08801325
0.08555908
0.08193235
0.07793463
0.07490326
0.07281442
0.07149178
0.07080441
0.0705801
0.07040357
0.06942261
0.0666212
0.06202752
0.05725633
0.05352462
0.04881248
0.04492772
0.04562767
0.05032339
0.05768091
0.06651272
0.07248903
0.07541171
0.07563291
0.07141469
0.05556039
0.0151998
0.0906045
0.09033779
0.08959887
0.08795261
0.08546535
0.08185691
0.07793802
0.07494577
0.07285481
0.07151322
0.07080089
0.07055196
0.07036566
0.06941703
0.06671457
0.06227025
0.05761692
0.05390368
0.04911635
0.04485562
0.04527441
0.04987927
0.05712298
0.06581784
0.07204457
0.07523046
0.07558637
0.07142776
0.05559368
0.01520418
0.09060317
0.09033273
0.08958607
0.08792522
0.0854238
0.08184619
0.07795808
0.07496631
0.07286728
0.07151468
0.0707914
0.07055002
0.07044211
0.06973704
0.06752595
0.06373234
0.05958187
0.05592536
0.05083305
0.04581143
0.04552392
0.04980234
0.05682648
0.0651877
0.07159754
0.07505702
0.07553287
0.07142014
0.05560194
0.01520542
0.09060413
0.09033594
0.0895943
0.08794337
0.08544721
0.08181903
0.07789353
0.0749081
0.07282443
0.07148111
0.07076742
0.07056841
0.07061896
0.0703401
0.06896142
0.06624844
0.06290715
0.05933486
0.0537168
0.04763016
0.04625543
0.0499527
0.05669213
0.06491555
0.07142211
0.07497799
0.07550016
0.07140459
0.05559364
0.01520448
0.0906072
0.09034636
0.08961883
0.08799316
0.08552945
0.08191192
0.07792063
0.07487999
0.07277713
0.07143576
0.07074136
0.07060798
0.07085852
0.07107776
0.07064643
0.06917541
0.06680172
0.06338262
0.05714375
0.04995346
0.04738621
0.05041567
0.05691955
0.06504444
0.07148825
0.0749983
0.07549256
0.07138289
0.05556923
0.01520136
0.09061187
0.09036213
0.08965488
0.08806263
0.08563264
0.08199821
0.07794061
0.07485499
0.07273885
0.07140316
0.07073506
0.07067828
0.07113546
0.07183323
0.0722793
0.07196585
0.07054882
0.06735471
0.06053728
0.05234708
0.04868377
0.0510651
0.05739039
0.06556008
0.07180178
0.07510786
0.07550255
0.07134811
0.05552238
0.01519514
0.09061722
0.09038006
0.08969385
0.08813326
0.08573847
0.08213495
0.07804895
0.07491614
0.07277175
0.07143051
0.07078348
0.07080023
0.07144942
0.07256871
0.07376003
0.074427
0.07385088
0.07088711
0.06358312
0.05458706
0.05003708
0.05185
0.05802295
0.06628305
0.07224788
0.07525943
0.07550698
0.07128386
0.05543955
0.01518402
0.09062205
0.09039715
0.08973064
0.0881979
0.08583609
0.08228814
0.07823424
0.07509113
0.07292069
0.07155969
0.07091735
0.07099268
0.07181013
0.07329123
0.07510155
0.07657048
0.07668587
0.07390282
0.06620877
0.05665695
0.05150174
0.05285363
0.05881262
0.06701004
0.07265544
0.07537949
0.07547137
0.07116524
0.05529968
0.01516525
0.09062499
0.09041147
0.08976511
0.08826078
0.08593572
0.08246475
0.07849196
0.07536037
0.07316339
0.07177235
0.07112301
0.07124627
0.07221485
0.07401353
0.07634643
0.07847112
0.07913422
0.07645394
0.06844942
0.05857821
0.05307005
0.05404693
0.05970169
0.06761774
0.07292277
0.0754206
0.07536644
0.07096314
0.05507475
0.01513472
0.09062417
0.09042136
0.08979983
0.08833343
0.08606506
0.08271683
0.07886441
0.07570055
0.07344738
0.07201563
0.07135797
0.07153092
0.07264703
0.07473867
0.07752875
0.08019886
0.08128549
0.07862233
0.07036994
0.06036872
0.05468675
0.0553281
0.0605976
0.06812421
0.07310169
0.07539026
0.07517559
0.07064563
0.05472827
0.01508649
0.09061737
0.09042596
0.08984044
0.08843254
0.08625441
0.08309132
0.07927008
0.07596474
0.07365445
0.07221255
0.07157478
0.07181651
0.0730876
0.0754605
0.07866367
0.08179613
0.0832025
0.08047701
0.07203715
0.06206514
0.0563514
0.05669981
0.0615458
0.06862893
0.07326211
0.07531353
0.07489258
0.07017958
0.0542133
0.01501193
0.09060304
0.09042923
0.08990114
0.08858014
0.08652363
0.08358241
0.07984478
0.0764028
0.07396828
0.07246221
0.07181909
0.07211661
0.07353079
0.07616645
0.07974545
0.08327364
0.08491263
0.08205913
0.07350196
0.06370963
0.05810256
0.05822221
0.06262728
0.06920762
0.07349203
0.07525084
0.07454276
0.06954609
0.05347663
0.01489834
0.09058437
0.09045291
0.09002685
0.08883973
0.08694219
0.08422699
0.08065938
0.07712729
0.07454279
0.07290532
0.0721741
0.07245365
0.07395752
0.07682006
0.08073998
0.08461033
0.08640936
0.0833773
0.07478138
0.0653207
0.05998697
0.06000424
0.06401114
0.07005607
0.07395923
0.07535717
0.07424078
0.06878739
0.05248183
0.01472647
0.09058074
0.0905673
0.0903338
0.08935484
0.08766919
0.0852047
0.08177835
0.07822119
0.07542781
0.07352365
0.07256609
0.07272385
0.07425878
0.07732578
0.08157452
0.08575603
0.08765859
0.08440626
0.07583785
0.06684701
0.06199069
0.06213259
0.0659004
0.07145063
0.07498865
0.07597599
0.07430177
0.06811781
0.05127107
0.01446922
0.09065602
0.09094249
0.09104341
0.09035292
0.08890975
0.08663566
0.08321425
0.07944243
0.07623662
0.07390485
0.07262488
0.07262851
0.07421253
0.07753
0.0821481
0.08664398
0.08861015
0.08509082
0.07656544
0.06811887
0.06394208
0.06454907
0.06844796
0.07374992
0.07706688
0.07768982
0.07537219
0.06814041
0.05015505
0.01410384
0.090968
0.09184214
0.09232391
0.09186605
0.0906149
0.08849637
0.08500546
0.08074063
0.07665351
0.07361643
0.0719532
0.07186765
0.07361775
0.07730659
0.08237999
0.08721652
0.08921602
0.08536655
0.07681155
0.06884056
0.06541484
0.06681981
0.07143324
0.07708171
0.0804973
0.08100102
0.07828976
0.07010421
0.05045355
0.01374254
0.09172627
0.09311398
0.09346092
0.09289913
0.09175875
0.08987984
0.08655625
0.08132104
0.07592821
0.07219922
0.0703665
0.07042034
0.07251626
0.07669354
0.08227296
0.08744475
0.08944209
0.085206
0.07648293
0.06874469
0.06585234
0.06808173
0.07390953
0.08073758
0.08454887
0.08529403
0.08305763
0.07536022
0.05484237
0.0143257
0.09228592
0.09278449
0.09241236
0.09189042
0.09128507
0.09028774
0.08796604
0.08224999
0.07434323
0.07015795
0.06853268
0.06895222
0.07143557
0.07600364
0.08192235
0.08728004
0.08921691
0.08464742
0.07573949
0.06802488
0.06524672
0.06785034
0.07499976
0.08487908
0.08838407
0.08913837
0.08838916
0.08454307
0.0688615
0.01893249
0.09210907
0.09234008
0.09175047
0.091012
0.0901584
0.08874146
0.08532237
0.07853335
0.07396968
0.0712395
0.06999124
0.07018569
0.07193454
0.0752055
0.07939545
0.08309456
0.08421626
0.08032429
0.07269255
0.06615509
0.06380799
0.06590118
0.0718691
0.08254054
0.08635707
0.08719558
0.08648764
0.08293751
0.0686357
0.01913961
0.09096683
0.09183781
0.09231349
0.0918433
0.09056869
0.08841349
0.08487419
0.08060717
0.07658178
0.07360845
0.07192661
0.07166979
0.07297563
0.07579912
0.07955648
0.08292094
0.08393963
0.0803003
0.07299048
0.06668902
0.06451131
0.06656028
0.07143119
0.07713813
0.08058023
0.08107952
0.07835636
0.07016018
0.05049366
0.01374569
0.08981079
0.08977511
0.09065442
0.09098286
0.09030893
0.0885571
0.08558032
0.08197824
0.07844987
0.07559482
0.07375957
0.07317826
0.07402409
0.07625908
0.0793529
0.08213279
0.08288654
0.07951177
0.07261724
0.06656451
0.06436165
0.06600736
0.06989113
0.07400496
0.07627174
0.07581162
0.07164608
0.06162936
0.04194447
0.01139537
0.08930369
0.08835163
0.08868036
0.08893574
0.0884544
0.08701912
0.08457733
0.08161719
0.07868978
0.07623428
0.07457008
0.07394559
0.0745347
0.07629307
0.07873654
0.08085987
0.08124281
0.07803762
0.07144252
0.06544686
0.06298294
0.06405564
0.0670934
0.07027835
0.0719035
0.07108274
0.06676937
0.05708705
0.03886772
0.0109828
0.08914542
0.08773242
0.08752614
0.08737882
0.08668652
0.0852148
0.08297956
0.08039122
0.07790703
0.07585374
0.07447465
0.07396849
0.07446066
0.07586148
0.07769813
0.07912078
0.0790357
0.07589817
0.06950526
0.06346889
0.06073087
0.06138958
0.06398934
0.06687604
0.06845107
0.0679003
0.06423771
0.05567126
0.03880847
0.01125476
0.08911497
0.08752476
0.08701565
0.08654311
0.08557968
0.08390784
0.08161951
0.0791441
0.07689275
0.07510932
0.07396096
0.07357759
0.07400789
0.07507966
0.07628981
0.07692854
0.07626786
0.07312755
0.06693208
0.06091997
0.05811448
0.05872194
0.06137205
0.06448354
0.06640778
0.06642267
0.06358474
0.05604721
0.03994455
0.01158493
0.08911908
0.08746932
0.08681178
0.08613995
0.08497091
0.08309646
0.08070844
0.0782586
0.0761071
0.07445336
0.07342005
0.07308037
0.07339729
0.07408621
0.07457609
0.07429584
0.07294302
0.06976979
0.06385256
0.05804358
0.05546885
0.05637989
0.05941967
0.06301922
0.06543034
0.06602552
0.06387617
0.05704715
0.04124928
0.01183355
0.08912659
0.08745536
0.08672306
0.08593497
0.08462879
0.08259261
0.08012045
0.07767529
0.07556479
0.07396474
0.07297103
0.07260945
0.07275102
0.07297195
0.07260256
0.07123656
0.06908608
0.06589396
0.06038612
0.05499948
0.0529365
0.05439485
0.05798077
0.0621287
0.06501454
0.0660908
0.06443989
0.05805384
0.04233678
0.01200232
0.08912984
0.08744611
0.08667082
0.08581342
0.0844205
0.08226887
0.0796974
0.07722448
0.07513266
0.0735673
0.07259389
0.07218786
0.07211737
0.07179193
0.07041738
0.06780932
0.06480164
0.06164867
0.05668466
0.05191081
0.05055927
0.05268256
0.05684099
0.06149638
0.06481684
0.06626414
0.06496105
0.05885144
0.04313508
0.0121129
0.08912864
0.08743272
0.08662736
0.08572458
0.08427468
0.08204684
0.07940195
0.07689308
0.07480216
0.07325578
0.07229159
0.07183243
0.07153417
0.07061726
0.06814384
0.06422273
0.06038424
0.05734453
0.0529957
0.04892678
0.04836478
0.05116475
0.05585991
0.06096652
0.06466378
0.06639557
0.06533974
0.05941181
0.04368138
0.01218335
0.08912455
0.08741516
0.08658437
0.0856463
0.08415007
0.08187423
0.07918892
0.07666058
0.07457054
0.0730349
0.07207164
0.07155809
0.07104547
0.06957388
0.06607165
0.0609655
0.05641806
0.05349632
0.04969493
0.04625657
0.04640572
0.04979812
0.05495186
0.06044554
0.06448132
0.06644077
0.06557042
0.05977169
0.04403513
0.01222656
0.08911924
0.08739583
0.08654117
0.08557124
0.08403644
0.08173392
0.07903941
0.07651322
0.07442941
0.0728987
0.07192892
0.07136712
0.07069129
0.06881893
0.06459622
0.0586747
0.0535879
0.05067836
0.0472276
0.0441618
0.04478055
0.04860001
0.05410199
0.05990869
0.06424198
0.06639737
0.06567859
0.05998041
0.0442502
0.01225156
0.08911416
0.08737802
0.08650171
0.08550235
0.08393466
0.08162574
0.07894446
0.07643167
0.07435457
0.07282299
0.07184152
0.07124515
0.07048319
0.06842806
0.06390065
0.05763862
0.05228814
0.04932794
0.04600223
0.04292178
0.04363496
0.04765043
0.05335155
0.05936331
0.06394161
0.0662784
0.06569578
0.06008251
0.04436909
0.01226473
0.08911049
0.08736513
0.08647276
0.08545075
0.08385844
0.08155322
0.07889209
0.0763928
0.07431855
0.07278047
0.07178521
0.07117464
0.0704176
0.06841969
0.06402524
0.05794342
0.05272034
0.04973305
0.04631159
0.04278568
0.04313673
0.04708036
0.05281723
0.05889091
0.0636155
0.06611454
0.06565603
0.06011523
0.04442393
0.01227057
0.08910902
0.08735982
0.08646058
0.08542848
0.08382503
0.08152318
0.07886912
0.07637293
0.07429675
0.07275037
0.07174534
0.07114909
0.0705019
0.06883593
0.06509074
0.05979085
0.05508501
0.05203351
0.04822935
0.04384831
0.04334753
0.0469115
0.05252602
0.05855678
0.06334321
0.06596476
0.06559917
0.06010992
0.04443863
0.012272
0.08911004
0.08736312
0.08646777
0.08544152
0.08384349
0.08153013
0.07886518
0.07636433
0.07428353
0.07272968
0.07172281
0.0711709
0.07072805
0.06964172
0.06703647
0.06308537
0.0591964
0.05602089
0.05151689
0.04597541
0.04423376
0.04712683
0.05247772
0.05841552
0.06321991
0.06588654
0.06555606
0.06008627
0.04442664
0.01227056
0.0891134
0.08737432
0.08649195
0.08548388
0.0839066
0.0815948
0.07890958
0.07638739
0.07429128
0.07272811
0.0717267
0.07123824
0.07103806
0.07060366
0.06926101
0.06686135
0.06399402
0.0607954
0.05548884
0.04875592
0.04566787
0.04773548
0.05274264
0.05854746
0.0632782
0.06589573
0.06553372
0.06004699
0.04438866
0.01226626
0.08911857
0.0873916
0.08652891
0.08554733
0.08399872
0.08168546
0.07898103
0.07643961
0.07432922
0.0727592
0.07176956
0.07135189
0.07138608
0.07153773
0.07129181
0.07028322
0.0684554
0.06540875
0.05940816
0.05163261
0.04735456
0.04860971
0.05324788
0.05890018
0.06349247
0.06597613
0.06551914
0.05997951
0.04431404
0.01225765
0.08912466
0.08741199
0.08657187
0.08561937
0.08410409
0.08180678
0.07909798
0.0765438
0.07442131
0.07284599
0.07187041
0.07152183
0.07176321
0.07239961
0.07302947
0.07315271
0.07224886
0.06943231
0.0628989
0.05430869
0.04910225
0.04965083
0.05392028
0.05938856
0.06378907
0.06607919
0.06547879
0.05985589
0.04418079
0.01224197
0.08913048
0.08743231
0.08661541
0.08569299
0.08421587
0.08195395
0.07926936
0.07672234
0.0745948
0.07301333
0.07204811
0.07176043
0.07217964
0.07321218
0.07453366
0.07555239
0.07541194
0.07281202
0.06587506
0.05671614
0.05087924
0.05086479
0.05475256
0.05995159
0.06408105
0.06614019
0.06536516
0.05963469
0.04395548
0.012215
0.08913474
0.08745001
0.0866578
0.08576932
0.08433554
0.08212825
0.07949578
0.07697517
0.07485
0.07326199
0.07230331
0.07206894
0.07264338
0.07400842
0.07588978
0.0776214
0.07808818
0.07564099
0.06838752
0.05888285
0.05268025
0.05222759
0.05570656
0.06053842
0.06431337
0.06611338
0.0651339
0.05926732
0.04359465
0.01217056
0.08913583
0.08746303
0.08670062
0.08585774
0.0844816
0.0823575
0.07980226
0.0773119
0.07518521
0.07358524
0.07262817
0.07244088
0.07315494
0.07480989
0.07716147
0.07947226
0.08041175
0.07803529
0.0705262
0.06086441
0.05450619
0.0537093
0.05675036
0.06113713
0.06450011
0.0659951
0.06475679
0.05870376
0.04304471
0.01209975
0.08913218
0.08747133
0.08675175
0.08597921
0.08469237
0.08268781
0.08021063
0.07773546
0.07559845
0.07398044
0.07301883
0.07287041
0.07370934
0.07562249
0.07838088
0.08117164
0.08247187
0.0800852
0.07237592
0.0627253
0.05639194
0.05534586
0.05794524
0.06183275
0.06472456
0.06583472
0.0642408
0.05790766
0.04224659
0.01198969
0.08912401
0.08748357
0.08683784
0.08618057
0.08502937
0.08318704
0.08081131
0.07834396
0.07616687
0.07449699
0.07349859
0.07335909
0.0742944
0.07643279
0.07954787
0.08274158
0.08430897
0.08184095
0.07399227
0.06451372
0.05838614
0.05722202
0.05942584
0.06279275
0.06516806
0.06578593
0.06368644
0.05690665
0.0411627
0.01182218
0.08911907
0.08753696
0.08703856
0.08657973
0.08563351
0.08399123
0.08172702
0.07925247
0.07698567
0.07518956
0.07407591
0.07387866
0.07486216
0.07719132
0.08062587
0.08416469
0.08592139
0.08331091
0.07538271
0.06622614
0.06050487
0.05943307
0.06139822
0.06431532
0.066175
0.06620266
0.06340721
0.05591484
0.03986363
0.01157527
0.08914873
0.08774275
0.08754666
0.08741351
0.08673996
0.08529757
0.08308493
0.08050332
0.07800933
0.07594728
0.07460506
0.07427696
0.0752757
0.07778956
0.08153869
0.08539221
0.0872766
0.08446497
0.07649012
0.06776152
0.06264497
0.0619627
0.06401372
0.06674299
0.06824684
0.06770215
0.0640745
0.05554812
0.03873341
0.01124689
0.08930631
0.08836042
0.08869912
0.08896967
0.08850914
0.08710181
0.08467304
0.08171558
0.07877557
0.07631021
0.07468454
0.07423585
0.07530274
0.07807037
0.08218606
0.0863602
0.08832681
0.08524521
0.07719234
0.06889372
0.06449523
0.06450321
0.06710598
0.07016646
0.07173089
0.07091293
0.06662667
0.05697722
0.03880032
0.01097657
0.08981277
0.08978217
0.09067022
0.09101305
0.09036132
0.08864276
0.08569632
0.08209801
0.07854276
0.07565956
0.07385103
0.07343802
0.07474132
0.07791087
0.08249141
0.08701554
0.08902894
0.08559362
0.07734828
0.06932622
0.06555479
0.06635899
0.06989949
0.0739169
0.0761414
0.07568329
0.07153688
0.06154281
0.04188941
0.01139082
0.09096805
0.09184228
0.09232391
0.09186494
0.09060998
0.08848659
0.08498944
0.08075593
0.07671995
0.07370222
0.07202407
0.0719146
0.07365438
0.07735456
0.08245645
0.08732609
0.08934705
0.08549322
0.07691758
0.06891624
0.0654621
0.06684696
0.07144734
0.077089
0.08050106
0.08100428
0.07829336
0.07010853
0.0504578
0.01374322
0.09210932