/*--------------------------------*- C++ -*----------------------------------*\
| =========                 |                                                 |
| \\      /  F ield         | OpenFOAM: The Open Source CFD Toolbox           |
|  \\    /   O peration     | Version:  2506                                  |
|   \\  /    A nd           | Website:  www.openfoam.com                      |
|    \\/     M anipulation  |                                                 |
\*---------------------------------------------------------------------------*/
FoamFile
{
    version     2.0;
    format      ascii;
    arch        "LSB;label=32;scalar=64";
    class       volVectorField;
    location    "350/airRegion";
    object      U;
}
// * * * * * * * * * * * * * * * * * * * * * * * * * * * * * * * * * * * * * //

dimensions      [0 1 -1 0 0 0 0];

internalField   nonuniform List<vector> 
85779
(
(-0.001369287 -0.001369345 -0.02126527)
(-0.001910444 -0.001910597 -0.02086756)
(-0.001954855 -0.001955023 -0.02023678)
(-0.001985091 -0.00198504 -0.0196231)
(-0.002313177 -0.00231224 -0.01934376)
(-0.003239853 -0.003236342 -0.01996135)
(-0.004685378 -0.004674698 -0.0217623)
(-0.001805647 -0.001774471 -0.02629214)
(0.004816487 0.004895395 -0.05842085)
(0.01452784 0.01465138 -0.07932428)
(0.02922982 0.02940067 -0.09490503)
(0.04778152 0.04801665 -0.103126)
(0.06978684 0.07012881 -0.1031042)
(0.09413701 0.0946643 -0.09438757)
(0.118274 0.1190935 -0.07685437)
(0.1379546 0.1391532 -0.05133828)
(0.1474631 0.1490227 -0.02035469)
(0.1396041 0.1413404 0.01332189)
(0.1146037 0.1162335 0.04025306)
(0.08078447 0.08214985 0.05654265)
(0.04711516 0.04809583 0.0598401)
(0.02093903 0.02074605 0.05179836)
(0.002358679 0.00222188 0.03061519)
(-0.005295003 -0.004666638 0.01882753)
(-0.006383546 -0.006319563 0.01719249)
(-0.007681097 -0.007668374 0.01573927)
(-0.009461483 -0.009460343 0.01510567)
(-0.01170505 -0.01170874 0.01412107)
(-0.01356366 -0.01356872 0.01246573)
(-0.0050291 -0.005034501 0.003033689)
(-0.004368548 -0.001389927 -0.03819679)
(-0.006285812 -0.002174245 -0.03806892)
(-0.006396495 -0.002317933 -0.03762971)
(-0.006014428 -0.002242947 -0.03722037)
(-0.00560873 -0.002192824 -0.03744591)
(-0.004921775 -0.002281806 -0.03916042)
(-0.001627113 -0.00166449 -0.04166174)
(0.002712668 0.006370035 -0.05731186)
(0.00799692 0.01696849 -0.07630168)
(0.01883001 0.02583759 -0.09159546)
(0.03474595 0.03662722 -0.1034549)
(0.0544624 0.0503918 -0.108996)
(0.07749233 0.06714974 -0.1071362)
(0.1026179 0.08608593 -0.09715226)
(0.127288 0.1052001 -0.07880247)
(0.1473344 0.1209952 -0.05282246)
(0.1571143 0.1285664 -0.02167197)
(0.1493045 0.122168 0.01202539)
(0.1236367 0.1020655 0.0396493)
(0.0884224 0.07517972 0.05753572)
(0.0525843 0.04868865 0.06364925)
(0.02294048 0.02697158 0.05988469)
(0.004503987 0.009824246 0.05051887)
(-0.005841956 -0.001057277 0.03280047)
(-0.01504034 -0.004567043 0.0304482)
(-0.02121924 -0.006812754 0.02747229)
(-0.02754039 -0.008732127 0.02540973)
(-0.03599914 -0.01026096 0.02248988)
(-0.04979782 -0.009902071 0.01940086)
(-0.06714473 0.002036266 -0.002539737)
(-0.006986821 -0.001127369 -0.04581304)
(-0.01041252 -0.001928258 -0.04587805)
(-0.0107272 -0.002173288 -0.04581987)
(-0.009898761 -0.002169158 -0.0459652)
(-0.008482551 -0.002140273 -0.04707786)
(-0.00574544 -0.002153754 -0.05015614)
(0.002276905 -0.0001272821 -0.05391113)
(0.006018771 0.009249492 -0.07965525)
(0.01105796 0.01970629 -0.09370787)
(0.02409107 0.02835606 -0.1060324)
(0.04165871 0.03786637 -0.114249)
(0.06291527 0.04944958 -0.1167926)
(0.08723294 0.06332521 -0.1126719)
(0.1133025 0.07894082 -0.1010895)
(0.1385856 0.0947201 -0.08171784)
(0.1590124 0.1077545 -0.05516967)
(0.1690143 0.1138431 -0.02372827)
(0.1612517 0.1082093 0.01016323)
(0.1349069 0.09098834 0.03862643)
(0.09823212 0.06806462 0.0580174)
(0.06019103 0.04533849 0.06635894)
(0.02788095 0.02617313 0.06478878)
(0.006908763 0.01078851 0.05763509)
(-0.008216715 0.0002980194 0.03777291)
(-0.02344478 -0.003591167 0.03488218)
(-0.03468895 -0.006066295 0.03075851)
(-0.04606817 -0.007998456 0.0272404)
(-0.06064887 -0.009352283 0.02235864)
(-0.08261668 -0.009127617 0.0181447)
(-0.1043567 -0.001836318 -0.01028992)
(-0.009000706 -0.0008108238 -0.04948497)
(-0.01382668 -0.001495127 -0.04952921)
(-0.01446168 -0.001782887 -0.04970452)
(-0.01326131 -0.001868825 -0.05036936)
(-0.01080668 -0.001999767 -0.05248604)
(-0.006208753 -0.002205336 -0.05640751)
(0.004345358 0.001654879 -0.06336272)
(0.009742004 0.01093946 -0.09184866)
(0.01582251 0.01954345 -0.1061254)
(0.03021363 0.02761141 -0.1173273)
(0.04919924 0.03639093 -0.1236288)
(0.0717965 0.04659998 -0.1241319)
(0.097215 0.05846287 -0.1182318)
(0.124053 0.0716215 -0.1052728)
(0.1498155 0.08485427 -0.08497588)
(0.1705532 0.09575657 -0.05789818)
(0.1807633 0.1007137 -0.02615652)
(0.1731013 0.09561611 0.00794883)
(0.1462043 0.08046102 0.03716306)
(0.1082975 0.06045856 0.05758729)
(0.0681975 0.04060607 0.06718336)
(0.03304506 0.02372986 0.06649998)
(0.008601971 0.01035793 0.05959411)
(-0.01092786 0.0008653901 0.03867497)
(-0.03109559 -0.002860751 0.03515756)
(-0.04698396 -0.005200045 0.0301513)
(-0.06284223 -0.006930409 0.02561969)
(-0.08182628 -0.007997473 0.01968242)
(-0.1076467 -0.007694888 0.0158259)
(-0.1263888 -0.002243249 -0.01492121)
(-0.01041234 -0.0005395076 -0.05133307)
(-0.01636753 -0.001057799 -0.05127219)
(-0.01735079 -0.001324408 -0.05155616)
(-0.01589537 -0.001440478 -0.05269868)
(-0.01245789 -0.001518752 -0.05588638)
(-0.004384026 -0.00133139 -0.06065707)
(0.004968036 0.002702165 -0.08065963)
(0.01064167 0.01109237 -0.1015893)
(0.02059422 0.01860451 -0.1151441)
(0.03668382 0.02588326 -0.1256979)
(0.05690342 0.03376293 -0.1308647)
(0.08054385 0.04272022 -0.1301156)
(0.1067264 0.05291117 -0.1230139)
(0.1340223 0.06406996 -0.1090754)
(0.1600297 0.07522883 -0.08811105)
(0.180946 0.08438531 -0.0606509)
(0.1913246 0.08840484 -0.02866322)
(0.1838126 0.08371039 0.005623142)
(0.1565449 0.07023722 0.03542217)
(0.1177761 0.05273943 0.0564207)
(0.07605154 0.0355183 0.06658334)
(0.03834975 0.02096981 0.06613596)
(0.01049668 0.009561518 0.05902031)
(-0.01297124 0.001125795 0.03774095)
(-0.03729939 -0.002221895 0.03366255)
(-0.057158 -0.00426119 0.02807647)
(-0.07658442 -0.005694663 0.02301567)
(-0.09847543 -0.0064707 0.01673169)
(-0.1260622 -0.0060899 0.01368053)
(-0.1417413 -0.002021518 -0.01797977)
(-0.01133582 -0.0003409124 -0.05228912)
(-0.01810516 -0.0007038673 -0.05211934)
(-0.0193704 -0.0009242553 -0.0524331)
(-0.01768745 -0.001056897 -0.05377472)
(-0.01343107 -0.001096035 -0.05739912)
(-0.005238463 -0.000657728 -0.06271925)
(0.007382714 0.003085434 -0.07792832)
(0.0155641 0.01091161 -0.1055171)
(0.02551568 0.01754737 -0.1207006)
(0.04290987 0.02386686 -0.1313147)
(0.06430255 0.03066993 -0.1360127)
(0.08878419 0.03838768 -0.1345151)
(0.1154754 0.04708918 -0.1266656)
(0.1429855 0.05654018 -0.112125)
(0.1690533 0.06595096 -0.09078264)
(0.1900435 0.07363482 -0.0631375)
(0.2005477 0.07685293 -0.03101269)
(0.1931834 0.0724854 0.003378172)
(0.165673 0.06049942 0.03357089)
(0.1263899 0.04530621 0.05478016)
(0.08355602 0.03058395 0.06509269)
(0.04385096 0.01828867 0.06461669)
(0.01304354 0.008687219 0.05727734)
(-0.01383524 0.001277219 0.03613402)
(-0.04166974 -0.001613551 0.0316484)
(-0.06482511 -0.003308399 0.02574131)
(-0.08702244 -0.004446136 0.02048666)
(-0.1108701 -0.004995828 0.01423802)
(-0.1393408 -0.004610833 0.01198288)
(-0.1524658 -0.001650347 -0.01996603)
(-0.01190753 -0.0002066402 -0.05279787)
(-0.01921826 -0.0004460337 -0.05255809)
(-0.02068391 -0.0006163829 -0.05291895)
(-0.01880854 -0.0007649331 -0.05453922)
(-0.01371682 -0.001009056 -0.05885276)
(-0.003798419 -0.001048167 -0.06469113)
(0.008362844 0.004163621 -0.08395198)
(0.01754346 0.0117416 -0.1104197)
(0.02956615 0.01666203 -0.1256445)
(0.04854093 0.02162502 -0.1356344)
(0.07108699 0.02734616 -0.1396729)
(0.09629978 0.03389418 -0.1375575)
(0.1233419 0.04125698 -0.1292034)
(0.1509135 0.04921217 -0.1143242)
(0.1769329 0.05710511 -0.09283844)
(0.1979403 0.06350684 -0.065185)
(0.2085307 0.06602029 -0.03302983)
(0.2012536 0.06194649 0.001398931)
(0.173562 0.0513752 0.03180857)
(0.134063 0.03840084 0.05295866)
(0.09062714 0.02607315 0.06317869)
(0.04952683 0.0158832 0.06260082)
(0.01635429 0.007877472 0.05515869)
(-0.01339664 0.001387491 0.03446051)
(-0.04419897 -0.0010461 0.02972019)
(-0.07008856 -0.002415037 0.02366162)
(-0.09446878 -0.003300353 0.01839202)
(-0.119718 -0.003695582 0.01232956)
(-0.1486985 -0.003369606 0.0107661)
(-0.1599506 -0.001264378 -0.02129766)
(-0.01223948 -0.0001186279 -0.0530724)
(-0.01987411 -0.0002621934 -0.0527971)
(-0.02144436 -0.000367198 -0.0532147)
(-0.01938401 -0.0004508901 -0.05516596)
(-0.01353294 -0.0005813474 -0.06025585)
(8.906169e-05 -0.0003921805 -0.06628976)
(0.008475028 0.004960128 -0.09886054)
(0.01689244 0.01067214 -0.1159803)
(0.03327077 0.01462063 -0.1296943)
(0.05379452 0.01885703 -0.1387535)
(0.07726601 0.02377223 -0.1420261)
(0.1030557 0.02934155 -0.1394245)
(0.1303178 0.03554196 -0.1307441)
(0.1578523 0.04218324 -0.1157145)
(0.1837718 0.04873262 -0.09425442)
(0.2047791 0.05398697 -0.06671807)
(0.2154192 0.05586824 -0.03460039)
(0.2081247 0.05209574 -0.0001595308)
(0.1802679 0.04294985 0.03031565)
(0.1408009 0.03215536 0.05120999)
(0.09721017 0.02210259 0.06119739)
(0.05527552 0.01382168 0.06051955)
(0.02032166 0.007178924 0.05310057)
(-0.01180027 0.001465488 0.03300554)
(-0.04514049 -0.0005528203 0.02812722)
(-0.07332293 -0.001640502 0.02200227)
(-0.09946897 -0.002325522 0.01678731)
(-0.125796 -0.002622487 0.0109397)
(-0.1551362 -0.002384128 0.009916835)
(-0.1651117 -0.0009231425 -0.02220332)
(-0.01241489 -6.385992e-05 -0.05321833)
(-0.02021189 -0.0001406106 -0.05292345)
(-0.02179394 -0.000187902 -0.05336934)
(-0.01952428 -0.0001898731 -0.05545003)
(-0.01314397 -7.181893e-05 -0.06080782)
(0.001517606 0.0006295707 -0.06676148)
(0.01078637 0.004251552 -0.1005818)
(0.02004891 0.008403068 -0.1173308)
(0.03749015 0.01209917 -0.1313935)
(0.05881363 0.01594728 -0.1402043)
(0.08292596 0.02018074 -0.1431633)
(0.1090876 0.0248856 -0.1402986)
(0.136438 0.03004603 -0.1314568)
(0.1638683 0.03550497 -0.116412)
(0.1896755 0.04083294 -0.09508427)
(0.2106899 0.04503048 -0.06773373)
(0.2213457 0.04634201 -0.03567837)
(0.2139206 0.04292951 -0.001220354)
(0.1859107 0.0352805 0.02918873)
(0.1466759 0.02662841 0.04969326)
(0.1032738 0.01869146 0.05937783)
(0.06094677 0.01209311 0.05862717)
(0.02471093 0.006596955 0.0513163)
(-0.009345034 0.001542804 0.03187495)
(-0.0448743 -0.0001521198 0.02693341)
(-0.07499692 -0.00101518 0.02076877)
(-0.1026016 -0.001546583 0.01561563)
(-0.129803 -0.001781234 0.009952409)
(-0.1594502 -0.001632341 0.00933673)
(-0.1685863 -0.0006396541 -0.02279494)
(-0.01249677 -3.383664e-05 -0.05329769)
(-0.02035564 -7.489762e-05 -0.05299643)
(-0.02189439 -9.798659e-05 -0.05346276)
(-0.01941453 -7.933377e-05 -0.05560675)
(-0.01258828 9.054163e-05 -0.06102561)
(0.002872801 0.0009503264 -0.06705191)
(0.01307219 0.003883409 -0.1008426)
(0.02324106 0.00702644 -0.1177829)
(0.04144318 0.01009454 -0.1320035)
(0.06338176 0.0132933 -0.1407526)
(0.08793985 0.01678729 -0.1435497)
(0.1143309 0.02063735 -0.1405264)
(0.1416916 0.02481272 -0.1316006)
(0.1689965 0.0291693 -0.1165963)
(0.1947074 0.03335257 -0.09543826)
(0.215743 0.03655314 -0.0682925)
(0.2263876 0.0373671 -0.03630419)
(0.2187733 0.03443684 -0.001832304)
(0.1906755 0.02839103 0.02840121)
(0.1518275 0.0218113 0.04845811)
(0.1088194 0.01578731 0.05784283)
(0.06637684 0.0106368 0.05707216)
(0.02923066 0.006106686 0.04994367)
(-0.006379309 0.001637759 0.03109698)
(-0.04381043 0.0001449316 0.02608205)
(-0.07557097 -0.0005472794 0.01989889)
(-0.1043882 -0.0009600024 0.01479269)
(-0.132316 -0.001150349 0.009267914)
(-0.1622435 -0.001071797 0.00894556)
(-0.1708552 -0.0004229342 -0.02317356)
(-0.01252998 -2.11304e-05 -0.05334832)
(-0.02040131 -5.248222e-05 -0.0530562)
(-0.02187723 -8.696739e-05 -0.05356043)
(-0.0192001 -0.000113849 -0.05578335)
(-0.01200998 -1.939569e-05 -0.06125335)
(0.004123187 0.0009208403 -0.06745621)
(0.01504846 0.003606245 -0.1012313)
(0.02592918 0.00606678 -0.1182134)
(0.04476097 0.008403787 -0.1324008)
(0.06720368 0.01086407 -0.1410108)
(0.09211127 0.01357668 -0.143628)
(0.1186712 0.01656986 -0.1404459)
(0.1460255 0.01979295 -0.131436)
(0.1732208 0.02310118 -0.1164631)
(0.1988528 0.02619461 -0.09546021)
(0.2199028 0.02845547 -0.06851369)
(0.2305335 0.02887797 -0.03661545)
(0.2228087 0.02660366 -0.002181047)
(0.1947923 0.02225058 0.02781831)
(0.1564341 0.01761441 0.04747587)
(0.1138664 0.01327214 0.05665003)
(0.07140308 0.009353996 0.05593549)
(0.03357813 0.005636847 0.04904462)
(-0.003251128 0.001649204 0.03068602)
(-0.04234738 0.0003118329 0.02549641)
(-0.07545832 -0.0002353585 0.01932126)
(-0.1052675 -0.0005484672 0.01423995)
(-0.1337934 -0.000700126 0.008808117)
(-0.1639728 -0.0006686577 0.008687296)
(-0.1722757 -0.000265113 -0.02340893)
(-0.01254456 -1.786988e-05 -0.05339285)
(-0.02041756 -5.420923e-05 -0.05312932)
(-0.02184292 -0.0001225881 -0.05371227)
(-0.01898414 -0.0002461048 -0.05610055)
(-0.0115227 -0.0003525697 -0.0616892)
(0.005027778 0.0007763314 -0.06842052)
(0.01646274 0.003387092 -0.1021855)
(0.02786026 0.005210369 -0.1190684)
(0.04722316 0.006794673 -0.1330118)
(0.07009971 0.008498392 -0.1413326)
(0.09530597 0.01043404 -0.1436881)
(0.1220119 0.01259091 -0.1403052)
(0.1493679 0.01489858 -0.1311801)
(0.176471 0.01721137 -0.1162041)
(0.2020113 0.01928032 -0.09531982)
(0.2230378 0.0206872 -0.06856273)
(0.2337087 0.02084991 -0.03680937)
(0.2261334 0.01938684 -0.002507556)
(0.1984698 0.01673626 0.02728677)
(0.1606404 0.01385774 0.04671016)
(0.1184031 0.01097797 0.0558459)
(0.07584422 0.008149056 0.05526636)
(0.03742948 0.005171215 0.04856085)
(-0.0003823566 0.001554487 0.0305407)
(-0.04084665 0.000323699 0.02516681)
(-0.07500914 -7.550382e-05 0.01898747)
(-0.1055928 -0.0002888304 0.01389724)
(-0.13459 -0.0003981247 0.008515886)
(-0.1649813 -0.000391517 0.008524189)
(-0.1731159 -0.0001555497 -0.02354837)
(-0.01255501 -1.603981e-05 -0.0534377)
(-0.02043768 -5.537443e-05 -0.0532208)
(-0.02184075 -0.0001458005 -0.05393167)
(-0.01880858 -0.0003488816 -0.05663147)
(-0.01108675 -0.0006763813 -0.06241067)
(0.005392171 0.0006115303 -0.07078034)
(0.01711393 0.003001316 -0.1038569)
(0.02897847 0.004119579 -0.1204241)
(0.04882347 0.005002923 -0.1338721)
(0.0720652 0.006025643 -0.1417768)
(0.09750495 0.007249777 -0.1438181)
(0.124321 0.008626464 -0.1402193)
(0.1516728 0.01007455 -0.1309697)
(0.1786837 0.0114572 -0.115972)
(0.2041015 0.01258404 -0.09517872)
(0.2250622 0.01323917 -0.06860753)
(0.2358562 0.01325414 -0.03706022)
(0.2287844 0.01267482 -0.002981187)
(0.2017921 0.01164336 0.02672785)
(0.1644753 0.01030613 0.0461717)
(0.1223374 0.008707935 0.0555214)
(0.07945155 0.006920556 0.05522639)
(0.04038276 0.004777211 0.04871521)
(0.001765491 0.001436408 0.03088957)
(-0.03959162 0.000107536 0.02511634)
(-0.07448207 -6.774117e-05 0.01888474)
(-0.1056318 -0.0001559124 0.01372887)
(-0.1349713 -0.0002110103 0.008352242)
(-0.1655232 -0.0002103997 0.008431081)
(-0.1735755 -8.339054e-05 -0.0236242)
(-0.01256414 -1.045429e-05 -0.05347492)
(-0.02046233 -3.80664e-05 -0.0533044)
(-0.02186758 -0.0001056027 -0.05415029)
(-0.01870305 -0.0002908235 -0.05720395)
(-0.01064201 -0.000672534 -0.06311095)
(0.005322218 0.0004325244 -0.07396853)
(0.01710409 0.002071654 -0.1056125)
(0.02949395 0.002516308 -0.1217801)
(0.04970936 0.002874264 -0.1346768)
(0.07319073 0.003377483 -0.1421876)
(0.09876872 0.00399648 -0.1439611)
(0.1256391 0.004675418 -0.1401923)
(0.1529614 0.005337891 -0.1308503)
(0.1798603 0.005865416 -0.1158437)
(0.2051083 0.006129933 -0.0951382)
(0.2259492 0.00611458 -0.06876685)
(0.2369379 0.00604099 -0.03749715)
(0.2307295 0.006316924 -0.003730789)
(0.204735 0.00674065 0.02606617)
(0.1678973 0.0066955 0.04583827)
(0.1255715 0.00615212 0.05572289)
(0.081985 0.005281322 0.05602903)
(0.04189041 0.00405327 0.0499135)
(0.002617393 0.001289527 0.0330494)
(-0.03872545 -0.0001670083 0.02545213)
(-0.07405191 -0.0001108827 0.01909903)
(-0.1055773 -8.740127e-05 0.01372694)
(-0.1351256 -9.569527e-05 0.008293411)
(-0.1657782 -9.357022e-05 0.008390841)
(-0.1737969 -3.690383e-05 -0.02365852)
(-0.01256846 -1.453655e-06 -0.05349097)
(-0.02047433 -3.741428e-06 -0.05334169)
(-0.02188326 -4.981842e-06 -0.05426894)
(-0.01866045 -3.433942e-06 -0.05755381)
(-0.01007344 1.254693e-05 -0.06351829)
(0.00500319 6.675027e-05 -0.0777852)
(0.01651098 0.0002137938 -0.1067786)
(0.0296285 0.0003586437 -0.1224813)
(0.05003804 0.0004984129 -0.1350482)
(0.07358999 0.0006278258 -0.1423476)
(0.09919777 0.0007312635 -0.1440033)
(0.1260628 0.0007862082 -0.1401595)
(0.1533289 0.0007339309 -0.1307817)
(0.1800916 0.0004741655 -0.1157912)
(0.2051041 -6.543661e-05 -0.09518568)
(0.225734 -0.0007153466 -0.06906798)
(0.2369377 -0.0008934046 -0.03821835)
(0.2318984 0.0001104693 -0.004928023)
(0.2072225 0.001798471 0.02510184)
(0.1709044 0.002829894 0.0454571)
(0.1282616 0.003100308 0.05607428)
(0.08384546 0.002909654 0.057076)
(0.04248012 0.002461661 0.05135257)
(0.002753258 0.0009143544 0.03606436)
(-0.03805848 -0.0002263639 0.02580326)
(-0.07377519 -8.867356e-05 0.01942246)
(-0.1054982 -1.982481e-05 0.01380597)
(-0.1351482 -1.111545e-05 0.00829444)
(-0.1658514 -1.124227e-05 0.008383062)
(-0.1738655 -4.750368e-06 -0.02366734)
(-0.01256761 6.92273e-06 -0.05348058)
(-0.0204673 2.750254e-05 -0.05331179)
(-0.02186804 8.217702e-05 -0.05416248)
(-0.01869969 0.0002368924 -0.05721199)
(-0.01063277 0.0005515434 -0.06308406)
(0.005467702 -0.0002451125 -0.07379425)
(0.01729669 -0.001446848 -0.1055545)
(0.02966865 -0.001676621 -0.121772)
(0.04985748 -0.001808055 -0.1346852)
(0.07332151 -0.002067094 -0.1421578)
(0.09887866 -0.002457624 -0.1438812)
(0.1256972 -0.002983725 -0.1400665)
(0.1528989 -0.003690628 -0.1307023)
(0.1795208 -0.004655976 -0.1157364)
(0.2042454 -0.005896479 -0.09521882)
(0.2245589 -0.007100822 -0.06937279)
(0.2359156 -0.007449698 -0.03904508)
(0.2321524 -0.00604002 -0.006407172)
(0.2090443 -0.003401929 0.02381579)
(0.1733683 -0.001389425 0.04484728)
(0.1304593 -0.0003391424 0.0562232)
(0.08531349 2.943177e-05 0.05773856)
(0.04248137 0.0001396578 0.05246776)
(0.002625906 4.758802e-05 0.03988274)
(-0.0372914 -7.814267e-05 0.02602475)
(-0.07365066 8.384365e-06 0.01962305)
(-0.1054143 5.047954e-05 0.01389106)
(-0.1350781 6.494721e-05 0.008321994)
(-0.1657927 6.01577e-05 0.008393752)
(-0.1738237 2.281369e-05 -0.02365952)
(-0.01256429 1.22736e-05 -0.05345214)
(-0.02045641 4.558552e-05 -0.05324723)
(-0.02185655 0.0001270313 -0.05400045)
(-0.01877376 0.0003163169 -0.05683064)
(-0.0108613 0.0006284144 -0.06264177)
(0.005378055 -0.0005020054 -0.07237965)
(0.01710961 -0.00246486 -0.1043731)
(0.02922479 -0.00328633 -0.1207563)
(0.04916978 -0.003876593 -0.1339807)
(0.07244942 -0.004587061 -0.1417189)
(0.09787507 -0.005488746 -0.143623)
(0.1246141 -0.0065891 -0.1399118)
(0.1517638 -0.007924019 -0.1305938)
(0.1782815 -0.00954199 -0.1156388)
(0.2027419 -0.01139925 -0.09515213)
(0.22271 -0.01308633 -0.0694859)
(0.2341101 -0.01366252 -0.03959643)
(0.2314088 -0.01212225 -0.007595055)
(0.2098082 -0.008826152 0.02264788)
(0.1748533 -0.005900222 0.04423065)
(0.1317919 -0.00398812 0.05618217)
(0.08613905 -0.002892434 0.05793325)
(0.0436272 -0.001993462 0.05224199)
(0.003151057 -0.0007011226 0.03686819)
(-0.03797733 -5.081314e-05 0.02603635)
(-0.07368288 7.725953e-05 0.01967855)
(-0.1053215 0.000131029 0.01394868)
(-0.1349173 0.000154527 0.008378741)
(-0.1656024 0.0001438223 0.008423095)
(-0.1736711 5.547632e-05 -0.0236349)
(-0.01256092 1.384299e-05 -0.05341192)
(-0.02044778 4.762778e-05 -0.05315553)
(-0.02186227 0.0001241505 -0.0537647)
(-0.01893291 0.0002868412 -0.05621897)
(-0.01134756 0.0005147464 -0.06183077)
(0.005302073 -0.0006603295 -0.06888237)
(0.01689827 -0.003089887 -0.1024706)
(0.028455 -0.004488072 -0.1192324)
(0.04796263 -0.005634995 -0.1329963)
(0.07093183 -0.006888986 -0.1411311)
(0.09616459 -0.008360825 -0.1433)
(0.1228105 -0.01007518 -0.1397398)
(0.1499401 -0.0120608 -0.1304771)
(0.1764305 -0.01433166 -0.1154985)
(0.2007371 -0.01677758 -0.09495642)
(0.2204408 -0.01891534 -0.06931883)
(0.2318025 -0.0197522 -0.03967355)
(0.2297887 -0.01823546 -0.008130028)
(0.2093774 -0.01446391 0.02198014)
(0.1750883 -0.01061295 0.04388088)
(0.1320498 -0.007687235 0.05618841)
(0.0861139 -0.005713805 0.05803164)
(0.04275804 -0.004017269 0.05261424)
(0.002504143 -0.001510547 0.03955894)
(-0.03774929 1.277797e-05 0.02612035)
(-0.07380477 0.0001804458 0.01973976)
(-0.105183 0.0002483806 0.01406032)
(-0.1346134 0.0002833125 0.008474675)
(-0.1652274 0.0002630881 0.008477246)
(-0.1733641 0.0001025793 -0.0235866)
(-0.012559 1.324537e-05 -0.05337254)
(-0.02045403 3.741068e-05 -0.05307746)
(-0.02191255 7.654084e-05 -0.05358747)
(-0.01914727 0.0001317676 -0.05582852)
(-0.0117845 0.0001065223 -0.06129508)
(0.004626282 -0.000811837 -0.06755672)
(0.0158397 -0.003249931 -0.1012356)
(0.02699921 -0.005266979 -0.118126)
(0.04607323 -0.00708984 -0.1321819)
(0.06869198 -0.008996618 -0.1406167)
(0.09369375 -0.01111794 -0.1430217)
(0.1202451 -0.01350963 -0.1396033)
(0.1473981 -0.01620103 -0.1303785)
(0.173953 -0.01917231 -0.1153291)
(0.198242 -0.02224431 -0.0946372)
(0.2178031 -0.02486005 -0.06886466)
(0.2290875 -0.0259804 -0.03924146)
(0.2273913 -0.02450802 -0.007907134)
(0.2077319 -0.02028072 0.02200909)
(0.1739125 -0.0154121 0.04401323)
(0.1309328 -0.0112491 0.05632839)
(0.08500591 -0.008205651 0.05784149)
(0.04267177 -0.005726901 0.05175473)
(0.002205466 -0.001936855 0.03523477)
(-0.0389858 0.0002041377 0.02606884)
(-0.0739811 0.0003300682 0.01970412)
(-0.1049024 0.0004122729 0.01418853)
(-0.1340694 0.0004733315 0.008635923)
(-0.1645656 0.0004402131 0.00857136)
(-0.1728188 0.0001728992 -0.02350037)
(-0.01255341 1.706323e-05 -0.05333667)
(-0.0204642 3.845726e-05 -0.05302215)
(-0.02199334 5.185316e-05 -0.05348009)
(-0.01940664 3.843638e-05 -0.05562396)
(-0.01234275 -0.0001033603 -0.06102573)
(0.003527059 -0.0008982078 -0.0670622)
(0.0141766 -0.003482716 -0.1007129)
(0.02479751 -0.006070859 -0.1175718)
(0.04339383 -0.008530371 -0.1316873)
(0.06563856 -0.01109074 -0.140272)
(0.09039934 -0.01389679 -0.1428288)
(0.1168685 -0.0170174 -0.1395079)
(0.1440905 -0.02047856 -0.1302836)
(0.1707972 -0.02422522 -0.1151115)
(0.1951958 -0.028003 -0.09418236)
(0.214733 -0.03116355 -0.06813082)
(0.2259263 -0.03259011 -0.03833177)
(0.2242334 -0.03110729 -0.006955494)
(0.2048625 -0.02632806 0.02280197)
(0.1711992 -0.02028509 0.04480573)
(0.1281935 -0.01463193 0.05697803)
(0.08236356 -0.01013301 0.05803687)
(0.0408926 -0.006424706 0.05146642)
(0.0009289219 -0.001866229 0.03245506)
(-0.04013292 6.023991e-05 0.02623431)
(-0.07411071 0.0004182165 0.01978802)
(-0.1043658 0.000640438 0.01446335)
(-0.1331361 0.0007543844 0.008913433)
(-0.1634604 0.0007024386 0.008731347)
(-0.17191 0.0002767629 -0.02335326)
(-0.01252469 3.237454e-05 -0.05329066)
(-0.02043098 7.036411e-05 -0.05297046)
(-0.02202924 8.893894e-05 -0.05340027)
(-0.01963695 6.925009e-05 -0.05548223)
(-0.01294413 -6.619642e-05 -0.06084194)
(0.002240005 -0.0007622352 -0.06681305)
(0.01212426 -0.003821524 -0.1004794)
(0.02201265 -0.007211781 -0.117258)
(0.04001897 -0.01023933 -0.1312732)
(0.06183082 -0.01337832 -0.1399048)
(0.08630983 -0.01685441 -0.1425718)
(0.1126785 -0.02073278 -0.1393281)
(0.1399855 -0.02502572 -0.1300886)
(0.1669017 -0.02963807 -0.1147648)
(0.191505 -0.03422741 -0.09354073)
(0.2111107 -0.03802416 -0.0671082)
(0.2222063 -0.0397854 -0.03698671)
(0.2202645 -0.03820751 -0.005361)
(0.2007704 -0.03272911 0.02430987)
(0.1669482 -0.02534775 0.04629535)
(0.1238069 -0.01802375 0.05831667)
(0.07811509 -0.01190597 0.05910628)
(0.03728986 -0.006871768 0.05227964)
(-0.001600606 -0.001880377 0.03267829)
(-0.04126926 -8.646507e-05 0.02683677)
(-0.07403075 0.0006032205 0.0203246)
(-0.1033658 0.0009950088 0.0149999)
(-0.131581 0.001171823 0.009369491)
(-0.1616761 0.001084443 0.008989487)
(-0.1704512 0.0004265542 -0.02311274)
(-0.01244262 6.463848e-05 -0.05321147)
(-0.02028618 0.0001440073 -0.05289625)
(-0.02192353 0.0001997095 -0.05329859)
(-0.01972977 0.0002354914 -0.05529015)
(-0.01350189 0.0002486477 -0.06050272)
(0.0007921256 -0.0001284794 -0.06643984)
(0.009998583 -0.004239548 -0.09940158)
(0.01910365 -0.008945716 -0.116383)
(0.03624195 -0.01241431 -0.1303246)
(0.05744671 -0.01598395 -0.1390935)
(0.08152546 -0.02007692 -0.1419426)
(0.1077133 -0.02473351 -0.1388278)
(0.1350691 -0.02993028 -0.1296075)
(0.162206 -0.03551659 -0.1141497)
(0.1870644 -0.04104391 -0.0926224)
(0.2067954 -0.0455853 -0.0657652)
(0.2177833 -0.04771793 -0.03524135)
(0.2153962 -0.04595312 -0.00322923)
(0.1954583 -0.03961143 0.0264051)
(0.1612411 -0.03073128 0.04835834)
(0.1179485 -0.02161336 0.0601917)
(0.07261318 -0.01383324 0.06072108)
(0.03280164 -0.007551651 0.05361413)
(-0.00455186 -0.001914442 0.03340174)
(-0.04226457 8.046156e-05 0.02774844)
(-0.07342253 0.0009945809 0.02119551)
(-0.101561 0.001534275 0.01582223)
(-0.1290574 0.001770953 0.01005535)
(-0.158876 0.001623268 0.009382533)
(-0.168179 0.0006349914 -0.02273213)
(-0.01226354 0.0001199833 -0.05306333)
(-0.01993706 0.0002662207 -0.05276351)
(-0.02154691 0.0003754206 -0.05311769)
(-0.01954392 0.0004676628 -0.05489378)
(-0.0139843 0.0005447545 -0.05957221)
(-0.001829791 0.0002212657 -0.06519964)
(0.009272251 -0.004055135 -0.09233626)
(0.01818649 -0.009935245 -0.1130657)
(0.03279281 -0.01432966 -0.1277238)
(0.05277749 -0.01864979 -0.1371752)
(0.0761645 -0.02348102 -0.1405188)
(0.1020097 -0.02900284 -0.1376961)
(0.1293224 -0.0352113 -0.128604)
(0.1566422 -0.04190845 -0.1130911)
(0.1817603 -0.04852299 -0.09131511)
(0.2016372 -0.05393378 -0.0640576)
(0.2124999 -0.05648472 -0.03312393)
(0.2095207 -0.05444282 -0.0006674589)
(0.1889232 -0.04707039 0.02893507)
(0.1541897 -0.03652566 0.05082683)
(0.1108465 -0.02548021 0.06242982)
(0.06620433 -0.01593424 0.06268527)
(0.02791069 -0.008318523 0.05528427)
(-0.007364863 -0.001879269 0.0344027)
(-0.04269802 0.0004179282 0.02898194)
(-0.07186026 0.001570925 0.02242849)
(-0.09850288 0.002277317 0.01699392)
(-0.1251026 0.002585849 0.01104428)
(-0.1546016 0.002356461 0.009964957)
(-0.1647349 0.000911372 -0.02214213)
(-0.01192742 0.0002076942 -0.05278957)
(-0.01927124 0.0004476815 -0.05253093)
(-0.0207744 0.0006138171 -0.05284915)
(-0.01896929 0.000736492 -0.05444975)
(-0.01407588 0.0008706761 -0.05874818)
(-0.002681354 0.000616337 -0.06417785)
(0.007252595 -0.004168957 -0.0915871)
(0.0151007 -0.01075651 -0.1105058)
(0.02896086 -0.01594711 -0.1245684)
(0.04782534 -0.02112648 -0.1343309)
(0.07027809 -0.02689157 -0.1381055)
(0.09557062 -0.03343881 -0.1356814)
(0.1227037 -0.04081819 -0.1268516)
(0.1501282 -0.04879976 -0.1114187)
(0.1754703 -0.05667818 -0.0895132)
(0.1954805 -0.06310247 -0.06194955)
(0.2061938 -0.06613166 -0.03066971)
(0.2025227 -0.06372811 0.002210028)
(0.1811574 -0.05516104 0.03173028)
(0.1459151 -0.04278657 0.05349984)
(0.1027503 -0.02967632 0.06482929)
(0.05924493 -0.01823147 0.06483732)
(0.02305515 -0.009136686 0.05724679)
(-0.009542983 -0.001774943 0.03575456)
(-0.04209559 0.0008805132 0.03055121)
(-0.06884391 0.002314502 0.02407237)
(-0.09364805 0.003227769 0.01859424)
(-0.1191266 0.003640585 0.012434)
(-0.1482411 0.003329573 0.0108158)
(-0.1596315 0.001247031 -0.02124163)
(-0.01135082 0.000342447 -0.05228217)
(-0.01814616 0.0007075303 -0.05209858)
(-0.01944197 0.0009291374 -0.05238458)
(-0.01780705 0.001058096 -0.05368152)
(-0.01367843 0.001156476 -0.05727381)
(-0.005593735 0.0009296507 -0.06226625)
(0.006949952 -0.003147707 -0.07769438)
(0.01515543 -0.01080247 -0.1046767)
(0.02501733 -0.01714555 -0.1197718)
(0.04227284 -0.0233952 -0.130054)
(0.06371061 -0.0302183 -0.1344572)
(0.08833169 -0.03793947 -0.1325535)
(0.1151605 -0.04666271 -0.1241606)
(0.1425833 -0.05612652 -0.1089999)
(0.1680736 -0.06547335 -0.08714927)
(0.1881722 -0.07307941 -0.05943896)
(0.1987051 -0.07666326 -0.02793882)
(0.1942914 -0.07381836 0.005270747)
(0.1721574 -0.0638925 0.03459978)
(0.1365446 -0.04952244 0.0561322)
(0.09391208 -0.03421584 0.06711386)
(0.05208028 -0.0207424 0.0669078)
(0.01862214 -0.01002209 0.05928481)
(-0.01071042 -0.001669776 0.03732089)
(-0.04000986 0.001427548 0.03240918)
(-0.0638624 0.003190643 0.02612371)
(-0.08639018 0.00436089 0.02068008)
(-0.1104118 0.004931604 0.01434048)
(-0.1389843 0.004564769 0.01203214)
(-0.1522227 0.001630924 -0.01992046)
(-0.01042099 0.0005417281 -0.05132539)
(-0.01639096 0.001064532 -0.0512523)
(-0.01738899 0.001339077 -0.05150949)
(-0.01595442 0.001474711 -0.05259809)
(-0.01257352 0.001607553 -0.05569085)
(-0.004605767 0.001603263 -0.06035263)
(0.004712231 -0.002536284 -0.07998362)
(0.01035021 -0.01090907 -0.1007844)
(0.02018238 -0.01832007 -0.1141152)
(0.03623761 -0.02559699 -0.1243965)
(0.0565379 -0.03344541 -0.1292422)
(0.08035003 -0.04239218 -0.1280535)
(0.1067068 -0.05260505 -0.1203724)
(0.1339647 -0.06377047 -0.1057677)
(0.1594735 -0.07483086 -0.08422837)
(0.1795782 -0.08382569 -0.05658541)
(0.189894 -0.08806418 -0.02503266)
(0.1847397 -0.08469627 0.008360522)
(0.1619392 -0.07322501 0.0373368)
(0.1262141 -0.05666764 0.05843724)
(0.08456374 -0.0390274 0.06890998)
(0.04498575 -0.02341175 0.06845644)
(0.01486543 -0.01092047 0.06092575)
(-0.01062562 -0.001541271 0.03881597)
(-0.03611752 0.002025566 0.03435247)
(-0.05649779 0.004139799 0.02842839)
(-0.07615339 0.00560869 0.02319778)
(-0.09815943 0.006406783 0.01682965)
(-0.125815 0.006044409 0.01372711)
(-0.141577 0.002003848 -0.01794289)
(-0.009002931 0.0008125651 -0.0494756)
(-0.01383148 0.001500285 -0.04950716)
(-0.01446275 0.00179311 -0.04964926)
(-0.01325683 0.001888423 -0.05023706)
(-0.01085288 0.002041498 -0.05216237)
(-0.006367167 0.002302157 -0.05591802)
(0.004293352 -0.001409006 -0.06178899)
(0.009773365 -0.01056139 -0.09054613)
(0.01578562 -0.0192622 -0.1047005)
(0.03007886 -0.02743435 -0.1157876)
(0.04909722 -0.0362164 -0.1218271)
(0.07185875 -0.0464386 -0.1219308)
(0.0974694 -0.05834844 -0.1154551)
(0.124309 -0.07152307 -0.1018066)
(0.149639 -0.084631 -0.08088885)