/*--------------------------------*- C++ -*----------------------------------*\
| =========                 |                                                 |
| \\      /  F ield         | OpenFOAM: The Open Source CFD Toolbox           |
|  \\    /   O peration     | Version:  2506                                  |
|   \\  /    A nd           | Website:  www.openfoam.com                      |
|    \\/     M anipulation  |                                                 |
\*---------------------------------------------------------------------------*/
FoamFile
{
    version     2.0;
    format      ascii;
    arch        "LSB;label=32;scalar=64";
    class       volScalarField;
    location    "1500/air";
    object      alphat;
}
// * * * * * * * * * * * * * * * * * * * * * * * * * * * * * * * * * * * * * //

dimensions      [1 -1 -1 0 0 0 0];

internalField   nonuniform List<scalar> 
33752
(
0.009328766
0.009297246
0.009269619
0.009248718
0.009232291
0.009218851
0.009207444
0.009197652
0.009189157
0.009181885
0.009175956
0.009171615
0.009169176
0.009168971
0.009171297
0.009176369
0.009184288
0.009195025
0.009208427
0.009224238
0.009242134
0.009261772
0.009282845
0.009305135
0.00932858
0.00935337
0.009380057
0.009409906
0.009445332
0.009483732
0.009296461
0.009245348
0.009206938
0.009180769
0.009161671
0.009146793
0.009134529
0.009124114
0.009115082
0.009107271
0.009100797
0.009095925
0.009093
0.009092387
0.009094409
0.009099297
0.009107156
0.009117948
0.009131497
0.00914752
0.009165669
0.009185589
0.009206991
0.009229733
0.009253932
0.009280145
0.009309642
0.009344994
0.009391204
0.009448317
0.009268798
0.009206448
0.0091579
0.009124956
0.009101492
0.009083652
0.009069148
0.009056811
0.009046068
0.009036627
0.009028602
0.009022299
0.009018128
0.009016524
0.009017871
0.009022442
0.009030356
0.009041558
0.009055829
0.009072827
0.009092146
0.009113391
0.009136279
0.009160743
0.009187096
0.009216258
0.009250082
0.009291939
0.009347547
0.009414963
0.009247476
0.009179413
0.009123724
0.009084677
0.009056424
0.009034804
0.009017106
0.009001828
0.008988364
0.008976303
0.008965782
0.008957189
0.008951042
0.008947895
0.008948237
0.00895241
0.008960558
0.008972601
0.008988252
0.009007068
0.009028533
0.009052164
0.009077633
0.009104901
0.009134392
0.009167232
0.009205528
0.009252848
0.009314767
0.009387307
0.009230077
0.009159032
0.009098568
0.009054455
0.009021412
0.00899547
0.008973801
0.008954676
0.008937526
0.008921849
0.008907841
0.00889602
0.008887079
0.008881752
0.008880689
0.008884344
0.008892905
0.008906257
0.008924006
0.008945551
0.008970197
0.008997295
0.0090264
0.009057416
0.009090776
0.009127654
0.009170183
0.009221842
0.00928789
0.009363013
0.009215175
0.009142504
0.009078764
0.009030518
0.0089929
0.008962294
0.008936001
0.008912229
0.008890495
0.008870224
0.008851707
0.008835652
0.008823003
0.008814761
0.008811812
0.008814779
0.008823919
0.008839073
0.008859693
0.008884941
0.008913848
0.008945502
0.008979244
0.009014833
0.009052619
0.009093724
0.009140207
0.009195393
0.009264274
0.00934072
0.00920197
0.009128304
0.009062134
0.009010419
0.008968494
0.008933022
0.008901559
0.008872465
0.008845347
0.008819546
0.00879547
0.008774089
0.008756701
0.008744687
0.008739275
0.008741328
0.008751201
0.008768678
0.008792996
0.008822982
0.008857271
0.008894574
0.008933916
0.008974834
0.009017532
0.009063038
0.009113314
0.009171558
0.009242585
0.009319778
0.00919
0.009115614
0.009047464
0.008992694
0.008946691
0.008906263
0.008869208
0.008834295
0.008801114
0.008768854
0.008738065
0.008710051
0.008686491
0.008669456
0.008660722
0.008661534
0.008672391
0.008692957
0.008722115
0.00875817
0.008799126
0.008843194
0.008889083
0.008936052
0.008984132
0.009034249
0.009088291
0.009149374
0.009222224
0.009299933
0.009179058
0.009104064
0.009034175
0.008976609
0.00892672
0.00888135
0.008838466
0.008797461
0.008757583
0.008717778
0.008678774
0.008642551
0.008611727
0.008588797
0.00857619
0.00857562
0.008587739
0.008612025
0.008646852
0.008689904
0.008738696
0.008790826
0.0088443
0.008898007
0.008951904
0.009006849
0.009064695
0.009128531
0.009203068
0.009281228
0.009169122
0.009093571
0.009022102
0.008961939
0.008908361
0.008858186
0.00880948
0.008762266
0.008714984
0.008666654
0.008618605
0.008573166
0.008533554
0.008503395
0.008486012
0.008483787
0.008497572
0.008526604
0.008568473
0.008619956
0.008677622
0.008738404
0.008799947
0.008860976
0.008921036
0.008980951
0.009042614
0.00910915
0.009185309
0.00926392
0.009160307
0.009084249
0.009011348
0.008948808
0.008891806
0.008837115
0.008782843
0.008729406
0.008674499
0.008617276
0.008559281
0.008503422
0.008453862
0.008418062
0.008398714
0.008395682
0.008409504
0.008439958
0.008488761
0.008549948
0.00861755
0.008687747
0.008757818
0.00882612
0.008892288
0.008957129
0.009022507
0.009091632
0.009169339
0.009248414
0.009152767
0.009076329
0.009002187
0.00893756
0.008877524
0.008818798
0.008759478
0.008700234
0.008637894
0.008571813
0.008503704
0.008437068
0.008385013
0.008346146
0.008323042
0.008318495
0.008333592
0.008367397
0.008417092
0.008483385
0.008561401
0.008641201
0.008719633
0.00879502
0.008866944
0.008936285
0.009005071
0.009076555
0.009155676
0.009235208
0.00914703
0.009070142
0.008994976
0.008928649
0.008866127
0.008804072
0.008740571
0.008676273
0.008607391
0.008533378
0.008456037
0.008386579
0.008329147
0.008284645
0.008257653
0.008251617
0.008267874
0.008305299
0.008360453
0.008428919
0.008513211
0.00860186
0.008687821
0.008769406
0.008846316
0.00891951
0.00899113
0.009064584
0.009144894
0.009224843
0.009142969
0.009065931
0.008990066
0.008922534
0.008858232
0.008793773
0.008727256
0.008659185
0.008585393
0.008505325
0.008421855
0.008350708
0.008288108
0.008239085
0.008209014
0.008201755
0.008218827
0.008259008
0.008318482
0.008391822
0.00847758
0.008573067
0.008664821
0.008751121
0.008831828
0.008907875
0.008981565
0.009056438
0.009137612
0.0092179
0.009141166
0.009063998
0.00898776
0.008919596
0.008854361
0.008788626
0.008720489
0.008650363
0.008573888
0.008490479
0.00840546
0.008331721
0.0082662
0.008214673
0.008182872
0.008174892
0.00819236
0.008234003
0.008295817
0.00837207
0.008458458
0.008557721
0.008652652
0.008741486
0.008824183
0.008901737
0.00897653
0.009052152
0.009133796
0.009214311
0.009141676
0.009064513
0.008988264
0.008920075
0.008854807
0.008789026
0.008720838
0.00865066
0.008574135
0.008490682
0.008405636
0.00833187
0.008266327
0.008214782
0.008182964
0.008174963
0.008192407
0.008234021
0.008295808
0.008372038
0.008458404
0.008557658
0.008652588
0.008741426
0.008824127
0.008901683
0.008976478
0.009052104
0.009133763
0.009214304
0.009144515
0.0090675
0.008991602
0.008923998
0.00885959
0.008794997
0.008728325
0.008660095
0.008586148
0.008505943
0.008422382
0.00835115
0.00828848
0.008239398
0.008209271
0.008201948
0.008218947
0.008259047
0.008318444
0.00839172
0.008477416
0.008572878
0.008664632
0.008750952
0.008831684
0.008907741
0.008981439
0.009056326
0.009137545
0.009217938
0.009149616
0.009072849
0.008997632
0.008931177
0.008868471
0.008806187
0.008742417
0.008677846
0.008608692
0.008534427
0.00845686
0.008387296
0.008329742
0.008285131
0.008258034
0.008251888
0.008268024
0.008305326
0.008360366
0.008428735
0.008512931
0.008601548
0.008687515
0.008769178
0.008846231
0.008919464
0.008991093
0.009064566
0.009144932
0.009225026
0.009156922
0.009080384
0.009006114
0.008941281
0.008880968
0.008821904
0.008762199
0.008702549
0.008639808
0.008573333
0.00850476
0.008437989
0.008385812
0.008346779
0.008323511
0.008318803
0.008333737
0.008367386
0.008416936
0.008483075
0.008561009
0.008640768
0.008719195
0.008794643
0.008866694
0.008936059
0.009004848
0.009076346
0.009155519
0.009235191
0.009165912
0.009089794
0.009016713
0.00895388
0.00889649
0.008841337
0.008786545
0.008732566
0.008677115
0.008619378
0.008560906
0.008504678
0.008454824
0.008418833
0.008399254
0.008396005
0.008409628
0.0084399
0.008488486
0.008549545
0.008617066
0.008687208
0.008757238
0.008825514
0.008891659
0.008956472
0.009021829
0.009090952
0.009168689
0.009247838
0.009176441
0.009100815
0.009029097
0.008968535
0.008914439
0.008863657
0.008814279
0.008766367
0.008718396
0.008669405
0.008620757
0.0085748
0.008534753
0.008504238
0.00848655
0.008484057
0.008497606
0.008526438
0.008568142
0.008619503
0.008677076
0.008737781
0.008799249
0.008860202
0.008920191
0.008980042
0.009041656
0.009108166
0.009184328
0.009262976
0.009188314
0.009113213
0.009042991
0.008984899
0.008934337
0.008888192
0.008844464
0.00880259
0.008761863
0.008721253
0.00868151
0.008644629
0.008613247
0.008589848
0.00857685
0.008575955
0.008587806
0.008611875
0.008646529
0.008689444
0.008738116
0.008790137
0.008843502
0.008897097
0.008950885
0.009005735
0.009063506
0.009127292
0.0092018
0.009279974
0.009201386
0.009126852
0.009058268
0.009002824
0.008955968
0.00891457
0.008876476
0.008840508
0.008806308
0.008773091
0.008741425
0.008712634
0.008688401
0.008670799
0.008661595
0.008662024
0.008672572
0.00869289
0.008721846
0.008757731
0.008798537
0.008842455
0.008888194
0.008935014
0.008982956
0.009032951
0.009086895
0.009147896
0.009220622
0.009298365
0.009215621
0.009141757
0.009075039
0.009022484
0.008979505
0.008942847
0.008910132
0.00887978
0.008851465
0.008824551
0.008799464
0.00877719
0.00875903
0.008746366
0.008740415
0.008742029
0.008751547
0.008768734
0.008792809
0.008822582
0.008856673
0.008893784
0.008932939
0.008973677
0.00901621
0.009061571
0.00911173
0.009169886
0.00924085
0.009318037
0.009231144
0.009158219
0.009093808
0.009044542
0.009005656
0.008973636
0.008945865
0.008920624
0.008897509
0.008875965
0.008856305
0.008839246
0.008825735
0.008816767
0.008813216
0.00881569
0.008824426
0.008839244
0.008859578
0.008884569
0.008913237
0.008944663
0.008978185
0.009013567
0.009051165
0.009092105
0.009138452
0.009193539
0.009262361
0.009338798
0.009248308
0.009176949
0.009115687
0.009070371
0.009035845
0.00900826
0.008984889
0.008964086
0.008945371
0.008928264
0.008912983
0.008900053
0.008890165
0.008884044
0.008882323
0.008885436
0.008893549
0.008906524
0.008923947
0.008945199
0.008969571
0.008996411
0.00902527
0.009056057
0.009089207
0.009125902
0.009168279
0.009219826
0.00928581
0.009360921
0.009267778
0.009199338
0.009142727
0.009102305
0.009072367
0.009048893
0.009029285
0.009012139
0.008996939
0.008983303
0.00897139
0.008961591
0.008954422
0.008950421
0.008950056
0.008953646
0.00896131
0.008972943
0.008988237
0.009006731
0.009027897
0.009051247
0.00907645
0.009103469
0.009132733
0.009165372
0.009203502
0.009250698
0.009312546
0.009385071
0.009290826
0.009228037
0.009178453
0.009143985
0.009118668
0.009098799
0.009082211
0.009067852
0.009055233
0.009044097
0.00903458
0.009026992
0.009021737
0.009019229
0.009019831
0.009023788
0.009031191
0.009041958
0.009055851
0.009072509
0.009091512
0.00911246
0.009135067
0.009159268
0.009185379
0.009214326
0.009247971
0.009289694
0.009345222
0.009412621
0.009319713
0.009268094
0.009228555
0.009200753
0.009179686
0.009162659
0.009148193
0.009135654
0.00912465
0.009115062
0.009107028
0.009100817
0.009096765
0.009095215
0.009096466
0.009100719
0.009108051
0.009118396
0.009131555
0.009147227
0.009165051
0.009184665
0.009205777
0.009228246
0.009252192
0.009278182
0.00930749
0.009342699
0.009388824
0.009445914
0.009352624
0.009320525
0.009291711
0.009269124
0.009250677
0.009235038
0.009221379
0.009209422
0.009198914
0.009189828
0.009182309
0.009176605
0.009173019
0.009171863
0.009173406
0.009177835
0.00918522
0.009195505
0.009208514
0.00922397
0.009241539
0.009260869
0.009281649
0.009303662
0.009326852
0.009351412
0.009377905
0.009407605
0.009442938
0.009481307
0.0883322
0.08845359
0.08849777
0.08848738
0.0884519
0.08840591
0.0883559
0.08830469
0.08825512
0.08821037
0.0881744
0.08815196
0.08814812
0.08816765
0.08821443
0.08829098
0.08839806
0.08853461
0.08869775
0.08888312
0.08908524
0.08929789
0.08951452
0.0897283
0.08993187
0.0901163
0.0902688
0.09036824
0.09037799
0.09026972
0.08845079
0.08863042
0.08870306
0.08869906
0.08865903
0.08860336
0.0885412
0.08847673
0.08841358
0.08835562
0.08830734
0.08827403
0.08826128
0.08827436
0.08831752
0.08839345
0.08850291
0.0886446
0.08881527
0.08901003
0.0892228
0.08944675
0.08967472
0.08989928
0.09011229
0.09030355
0.0904578
0.09054917
0.09053227
0.09037246
0.0884809
0.08869197
0.08878564
0.0887853
0.08873625
0.08866366
0.08858
0.08849137
0.08840264
0.08831913
0.08824653
0.08819138
0.08816049
0.08816022
0.0881956
0.08826974
0.08838336
0.08853469
0.08871962
0.08893215
0.08916489
0.08940974
0.08965829
0.08990198
0.0901315
0.09033518
0.09049565
0.090584
0.09055152
0.09036729
0.08844708
0.08866803
0.08876804
0.08876387
0.08870019
0.08860385
0.08848971
0.088366
0.08823926
0.08811704
0.08800705
0.08791796
0.08785868
0.08783737
0.08786042
0.08793161
0.08805161
0.08821788
0.0884249
0.08866478
0.08892804
0.08920447
0.08948377
0.08975571
0.09000964
0.0902327
0.09040651
0.09050135
0.09046805
0.09027847
0.08838048
0.08859987
0.08869446
0.0886781
0.08859341
0.08846633
0.08831262
0.08814231
0.08796413
0.08778863
0.08762659
0.08748987
0.08739053
0.08733949
0.08734517
0.08741239
0.08754175
0.08772952
0.08796805
0.08824668
0.08855282
0.08887325
0.08919499
0.08950574
0.08979336
0.09004415
0.0902394
0.09034961
0.09032578
0.09014048
0.08829712
0.08850921
0.08859044
0.08855406
0.0884412
0.08827583
0.08807306
0.08784382
0.08759951
0.08735457
0.087124
0.08692413
0.08677148
0.08668088
0.08666364
0.08672609
0.08686872
0.08708611
0.08736761
0.08769858
0.08806216
0.08844101
0.08881872
0.08918041
0.08951236
0.08980011
0.09002498
0.09015787
0.09015001
0.08997375
0.08820497
0.08840697
0.08846982
0.088407
0.08825881
0.08804729
0.08778571
0.08748456
0.08715841
0.08682663
0.0865097
0.08622982
0.0860094
0.08586846
0.0858223
0.08587939
0.08604015
0.08629688
0.08663474
0.08703371
0.08747123
0.08792467
0.08837322
0.08879894
0.08918633
0.08952025
0.08978214
0.08994341
0.08995557
0.08979069
0.08810853
0.08829912
0.08834061
0.08824663
0.08805687
0.08779169
0.08746184
0.08707579
0.08665222
0.08621656
0.08579583
0.08541936
0.08511689
0.08491469
0.08483336
0.08488448
0.08506868
0.08537534
0.08578389
0.08626732
0.08679593
0.08734057
0.08787487
0.08837736
0.08883062
0.0892189
0.08952389
0.08971773
0.08975246
0.0896001
0.08801127
0.08818999
0.0882086
0.08808053
0.08784469
0.08751971
0.08711341
0.08663109
0.08609725
0.08554403
0.08500506
0.084516
0.08411372
0.08383352
0.08370549
0.0837478
0.08396226
0.08433405
0.08483262
0.08542069
0.08605879
0.08670974
0.08734256
0.08793245
0.0884599
0.08890872
0.08926111
0.08949021
0.0895489
0.08940951
0.08791679
0.08808376
0.08807926
0.08791611
0.08763207
0.08724376
0.08675571
0.08617011
0.08551889
0.0848387
0.08416773
0.08354853
0.08302451
0.08263701
0.08243812
0.08246492
0.08272239
0.08318943
0.08380566
0.08452019
0.08528511
0.08605703
0.08679938
0.08748377
0.08809024
0.08860283
0.0890046
0.08926991
0.0893528
0.08922624
0.08782917
0.08798506
0.0879585
0.08776135
0.08742994
0.08697854
0.08640823
0.08571916
0.08494947
0.08413869
0.08332787
0.08255813
0.08185749
0.08123712
0.08085732
0.08083923
0.08118733
0.08188979
0.082717
0.08360543
0.08451586
0.08541628
0.08627179
0.08705311
0.08773947
0.08831542
0.08876566
0.08906615
0.08917223
0.08905776
0.08775296
0.08789892
0.08785259
0.08762471
0.08725003
0.08674033
0.08609336
0.08530799
0.08442756
0.08349118
0.08253361
0.08155943
0.08047581
0.07964831
0.07917806
0.07913542
0.07953552
0.08034228
0.08145174
0.08269653
0.08379514
0.08482884
0.08579336
0.08666579
0.08742651
0.08806126
0.08855595
0.08888835
0.08901526
0.08891148
0.08769212
0.08783026
0.08776778
0.08751455
0.08710389
0.08654537
0.08583369
0.08496758
0.08399275
0.08294341
0.08182567
0.08048537
0.07922457
0.07825617
0.07770515
0.07764299
0.07808649
0.07899572
0.08027422
0.08177641
0.08316609
0.08433647
0.08539774
0.08634773
0.08717098
0.08785479
0.08838656
0.08874539
0.08888938
0.08879423
0.08765142
0.08778368
0.08770964
0.08743824
0.08700171
0.086408
0.08564938
0.08472496
0.08368051
0.08254138
0.08126462
0.07969575
0.07829632
0.07722873
0.076619
0.07654293
0.07701871
0.07800311
0.07939356
0.08103408
0.08269753
0.08398095
0.085115
0.08612147
0.08698966
0.08770866
0.08826696
0.08864468
0.08880081
0.0887116
0.08763322
0.08776247
0.08768233
0.08740133
0.08695111
0.08633885
0.08555528
0.0846001
0.08351785
0.08232356
0.08090602
0.07927012
0.07780313
0.07668387
0.07604307
0.07595973
0.07645289
0.07747736
0.07892664
0.0806445
0.08245084
0.08379506
0.0849677
0.08600385
0.08689559
0.08763296
0.08820506
0.0885926
0.08875501
0.08866879
0.08763935
0.08776848
0.08768811
0.08740679
0.08695617
0.08634345
0.08555938
0.08460364
0.08352082
0.08232601
0.08090798
0.07927172
0.07780449
0.07668505
0.07604407
0.0759605
0.07645336
0.07747751
0.0789265
0.08064412
0.08245029
0.08379444
0.08496706
0.08600319
0.08689492
0.08763227
0.08820435
0.08859187
0.08875423
0.08866791
0.08767002
0.08780185
0.08772712
0.08745476
0.08701701
0.08642187
0.0856617
0.0847356
0.08368946
0.08254871
0.08127043
0.07970046
0.07830024
0.07723205
0.07662172
0.07654495
0.0770199
0.07800341
0.07939305
0.08103294
0.08269593
0.08397913
0.08511309
0.08611949
0.08698758
0.08770651
0.08826473
0.08864237
0.08879834
0.08870879
0.08772381
0.08786107
0.0877974
0.08754251
0.08712974
0.08656876
0.08585443
0.08498548
0.08400779
0.0829557
0.08183552
0.08049298
0.07923067
0.0782611
0.077709
0.07764566
0.07808785
0.07899577
0.08027313
0.08177452
0.08316345
0.08433349
0.08539456
0.08634429
0.08716717
0.08785077
0.0883824
0.08874106
0.08888479
0.08878907
0.08779773
0.08794297
0.087895
0.0876647
0.08728693
0.08677366
0.08612281
0.0853334
0.08444889
0.08350861
0.08254769
0.0815702
0.08048386
0.07965445
0.07918248
0.07913816
0.07953659
0.08034179
0.08145001
0.08269361
0.08379149
0.08482473
0.08578893
0.086661
0.08742125
0.08805569
0.08855013
0.08888229
0.08900889
0.08890454
0.0878886
0.08804337
0.08801455
0.08781411
0.08747854
0.08702233
0.08644683
0.08575238
0.08497735
0.08416144
0.0833459
0.08257196
0.08186774
0.08124447
0.08086217
0.08084187
0.081188
0.08188884
0.08271443
0.0836017
0.0845113
0.08541113
0.08626617
0.08704707
0.08773303
0.08830859
0.08875849
0.08905866
0.08916445
0.08904964
0.08799189
0.08815736
0.08814992
0.08798248
0.08769305
0.08729856
0.0868039
0.08621154
0.08555361
0.08486704
0.08419018
0.08356571
0.08303712
0.08264577
0.08244365
0.08246771
0.08272286
0.08318798
0.08380262
0.08451588
0.08527983
0.08605096
0.08679263
0.0874764
0.08808229
0.08859434
0.08899564
0.08926058
0.08934317
0.0892164
0.08810306
0.08827989
0.08829477
0.0881613
0.08791872
0.08758607
0.08717162
0.08668104
0.08613913
0.08557821
0.08503216
0.0845368
0.08412904
0.08384417
0.08371223
0.08375129
0.08396307
0.08433266
0.08482945
0.08541608
0.08605299
0.0867029
0.08733478
0.0879238
0.08845044
0.08889854
0.08925033
0.08947895
0.08953734
0.08939778
0.08821785
0.08840614
0.08844305
0.08834245
0.08814448
0.08787003
0.08753039
0.08713449
0.0867014
0.08625676
0.08582781
0.085444
0.08513517
0.08492756
0.0848417
0.08488909
0.08507025
0.08537441
0.08578092
0.08626264
0.08678977
0.08733309
0.08786617
0.08836754
0.08881976
0.08920712
0.08951135
0.08970463
0.08973911
0.08958659
0.08833231
0.08853156
0.08858893
0.08851821
0.08836025
0.08813778
0.08786471
0.08755206
0.08721489
0.08687283
0.08654655
0.08625839
0.08603078
0.08588375
0.08583251
0.08588539
0.08604271
0.08629663
0.08663213
0.08702909
0.08746486
0.08791669
0.08836375
0.08878809
0.08917421
0.08950703
0.08976798
0.08992856
0.08994031
0.08977524
0.08844239
0.08865129
0.08872612
0.08868052
0.08855631
0.0883783
0.0881623
0.0879199
0.08766308
0.08740656
0.08716555
0.08695648
0.0867959
0.08669858
0.08667574
0.08673357
0.08687239
0.08708664
0.08736548
0.08769415
0.08805568
0.08843266
0.08880861
0.08916869
0.08949915
0.0897856
0.09000939
0.09014147
0.09013309
0.08995658
0.08854281
0.08875859
0.0888459
0.08881903
0.08872147
0.08858007
0.08841146
0.0882264
0.08803428
0.08784597
0.08767245
0.08752568
0.08741773
0.08735942
0.08735905
0.08742127
0.08754649
0.08773081
0.08796642
0.08824248
0.08854632
0.08886462
0.08918438
0.08949329
0.08977925
0.09002855
0.09022258
0.09033186
0.09030743
0.09012184
0.08862469
0.08884164
0.08893355
0.08891771
0.08883975
0.08872758
0.08859701
0.08845712
0.08831517
0.08817903
0.08805665
0.08795676
0.08788827
0.08785921
0.08787582
0.08794168
0.08805728
0.08821985
0.08842371
0.0886608
0.08892155
0.08919566
0.08947279
0.08974272
0.08999481
0.09021625
0.09038869
0.0904825
0.09044853
0.09025861
0.08867098
0.08887772
0.08896259
0.0889496
0.08888511
0.08879544
0.08869409
0.08858814
0.08848315
0.08838483
0.08829909
0.08823253
0.08819195
0.08818355
0.08821219
0.08828075
0.08838975
0.08853719
0.08871879
0.08892836
0.08915844
0.08940082
0.08964707
0.08988861
0.09011617
0.09031811
0.09047711
0.09056434
0.09053111
0.0903465
0.08864955
0.08882457
0.0888879
0.08887055
0.08881428
0.08874066
0.08865995
0.08857737
0.08849725
0.08842385
0.08836191
0.08831678
0.088294
0.0882987
0.08833491
0.0884051
0.08850979
0.08864747
0.08881468
0.08900639
0.08921639
0.08943778
0.08966337
0.0898857
0.09009668
0.09028613
0.09043884
0.09052901
0.0905113
0.09035106
0.08853529
0.08865187
0.08868646
0.08866237
0.08861026
0.08854592
0.08847693
0.08840723
0.08834033
0.08827983
0.08822995
0.08819549
0.08818145
0.08819246
0.08823219
0.08830292
0.08840517
0.08853763
0.08869727
0.08887954
0.08907885
0.08928891
0.08950311
0.08971463
0.08991613
0.09009872
0.09024966
0.09034788
0.09035678
0.09024804
0.1891366
0.1892523
0.1893211
0.1893262
0.1892853
0.1892135
0.1891197
0.1890103
0.1888931
0.1887788
0.1886806
0.1886144
0.1885966
0.1886426
0.188765
0.1889719
0.189266
0.1896444
0.1900984
0.1906146
0.1911764
0.1917646
0.1923593
0.1929399
0.1934856
0.1939736
0.1943771
0.1946631
0.1947964
0.1947802
0.1892213
0.1893901
0.1894938
0.189507
0.1894546
0.1893587
0.1892329
0.1890868
0.1889305
0.1887767
0.1886409
0.1885407
0.1884947
0.18852
0.1886305
0.1888349
0.1891361
0.1895304
0.190008
0.1905538
0.1911491
0.1917728
0.1924026
0.1930163
0.1935908
0.1941004
0.194514
0.1947921
0.1948929
0.1948271
0.1892325
0.1894375
0.189566
0.1895762
0.1894951
0.189351
0.1891632
0.1889458
0.1887128
0.1884809
0.1882698
0.1881015
0.1879985
0.1879817
0.1880676
0.1882663
0.1885809
0.1890062
0.1895299
0.1901334
0.1907937
0.1914856
0.1921829
0.1928593
0.1934883
0.1940403
0.1944795
0.194761
0.1948409
0.1947428
0.1891583
0.1893731
0.1895002
0.1894853
0.1893533
0.1891353
0.188855
0.1885311
0.1881826
0.1878323
0.1875062
0.187233
0.1870421
0.1869599
0.1870074
0.1871971
0.187532
0.1880049
0.1885993
0.1892909
0.1900502
0.1908452
0.1916435
0.1924137
0.1931244
0.1937425
0.1942287
0.1945358
0.1946201
0.1945148
0.189021
0.1892261
0.189327
0.189263
0.1890562
0.1887376
0.1883333
0.187866
0.187361
0.1868486
0.1863639
0.1859454
0.1856319
0.1854586
0.1854526
0.1856299
0.1859936
0.1865335
0.1872269
0.1880414
0.188938
0.189875
0.1908116
0.1917094
0.1925319
0.1932426
0.1937998
0.1941557
0.1942679
0.1941738
0.1888399
0.1890227
0.1890784
0.1889438
0.1886387
0.1881926
0.1876321
0.1869832
0.1862781
0.1855567
0.1848659
0.1842573
0.1837831
0.18349
0.1834138
0.1835754
0.1839783
0.1846079
0.1854333
0.1864105
0.1874875
0.1886101
0.1897261
0.1907885
0.1917553
0.1925861
0.1932384
0.1936642
0.1938224
0.1937517
0.1886282
0.1887808
0.1887777
0.1885549
0.1881301
0.1875309
0.186783
0.1859139
0.184964
0.1839847
0.1830376
0.1821912
0.1815148
0.1810707
0.1809063
0.1810492
0.1815033
0.1822485
0.1832428
0.1844271
0.1857322
0.1870873
0.1884264
0.1896921
0.1908358
0.191814
0.1925834
0.1930968
0.1933143
0.1932747
0.1883956
0.1885134
0.1884424
0.1881181
0.1875562
0.1867815
0.1858177
0.1846925
0.1834553
0.1821707
0.1809177
0.1797853
0.178864
0.1782356
0.1779634
0.1780839
0.1786025
0.1794919
0.1806953
0.1821336
0.1837161
0.1853513
0.1869565
0.1884624
0.1898133
0.1909631
0.1918683
0.1924832
0.1927694
0.192766
0.1881517
0.1882324
0.1880884
0.1876543
0.1869432
0.1859765
0.1847745
0.183364
0.1818043
0.1801742
0.1785714
0.177107
0.1758962
0.1750457
0.1746406
0.174733
0.1753315
0.1763982
0.1778549
0.1795961
0.1815039
0.1834628
0.1853715
0.1871484
0.1887311
0.1900709
0.1911254
0.191851
0.1922119
0.1922474
0.1879074
0.1879507
0.1877327
0.1871862
0.186321
0.1851544
0.1837021
0.1819897
0.1800862
0.1780833
0.1760961
0.1742581
0.1727092
0.1715863
0.1710096
0.1710625
0.1717635
0.1730537
0.1748172
0.1769111
0.1791861
0.1815031
0.1837424
0.1858102
0.1876388
0.1891785
0.1903885
0.1912287
0.1916661
0.1917412
0.1876756
0.1876832
0.1873942
0.1867391
0.1857239
0.1843608
0.1826607
0.1806473
0.178398
0.1760141
0.1736236
0.1713726
0.1694154
0.1679339
0.1671069
0.167093
0.1679474
0.1695416
0.1716973
0.1742064
0.1768846
0.1795779
0.1821562
0.1845186
0.1865932
0.188331
0.189694
0.1906459
0.1911574
0.1912706
0.1874703
0.187446
0.1870934
0.1863403
0.1851887
0.1836459
0.1817176
0.1794255
0.1768527
0.1741046
0.1713095
0.1685991
0.1661082
0.1641947
0.1631416
0.1630784
0.1640385
0.1659403
0.1686143
0.1716298
0.174743
0.1778109
0.1807138
0.1833525
0.1856557
0.187576
0.189079
0.1901326
0.1907111
0.1908585
0.1873052
0.187255
0.1868502
0.1860164
0.184752
0.1830597
0.1809405
0.1784144
0.1755667
0.1724998
0.1693231
0.1661061
0.1631727
0.1609648
0.1597347
0.1596286
0.1606809
0.1628069
0.1658049
0.1693559
0.1729189
0.1763324
0.179518
0.1823917
0.184887
0.1869599
0.1885794
0.1897173
0.1903509
0.1905264
0.1871935
0.1871246
0.1866825
0.1857909
0.1844457
0.182646
0.1803892
0.1776939
0.1746451
0.171338
0.1678561
0.1642299
0.1610195
0.1586014
0.1572451
0.157108
0.1582272
0.1605124
0.1637478
0.1676069
0.1715782
0.1752653
0.1786616
0.1817065
0.1843407
0.1865232
0.1882262
0.1894243
0.1900972
0.1902925
0.187144
0.1870654
0.1866036
0.1856815
0.1842936
0.1824372
0.1801077
0.177323
0.1741669
0.1707277
0.1670683
0.1632437
0.1598846
0.1573557
0.1559328
0.1557792
0.1569334
0.159302
0.1626608
0.1666686
0.1708693
0.1747059
0.1782143
0.1813494
0.1840562
0.186296
0.1880425
0.1892719
0.1899652
0.1901707
0.1871621
0.1870831
0.1866206
0.1856976
0.1843085
0.1824506
0.1801196
0.1773333
0.1741756
0.1707348
0.167074
0.1632482
0.159888
0.1573583
0.1559347
0.1557805
0.1569341
0.1593021
0.1626603
0.1666676
0.170868
0.1747043
0.1782126
0.1813475
0.1840542
0.1862939
0.1880404
0.1892697
0.1899629
0.1901682
0.1872483
0.1871783
0.1867341
0.1858396
0.1844906
0.1826866
0.1804251
0.1777249
0.1746712
0.1713594
0.1678731
0.1642431
0.1610297
0.1586091
0.1572507
0.1571117
0.1582289
0.1605124
0.1637462
0.1676041
0.1715743
0.1752607
0.1786565
0.181701
0.1843347
0.186517
0.1882197
0.1894174
0.19009
0.1902849
0.1873979
0.1873458
0.1869373
0.1860984
0.1848277
0.1831281
0.1810009
0.1784665
0.1756105
0.1725357
0.1693518
0.1661282
0.1631895
0.1609773
0.1597435
0.1596341
0.1606833
0.1628065
0.165802
0.169351
0.1729124
0.1763248
0.1795095
0.1823824
0.184877
0.1869492
0.1885682
0.1897056
0.1903386
0.1905134
0.1876023
0.1875754
0.1872177
0.1864572
0.1852965
0.1837431
0.1818033
0.1794993
0.1769147
0.1741554
0.1713501
0.1686305
0.1661318
0.1642118
0.1631533
0.1630853
0.1640412
0.1659392
0.16861
0.1716229
0.174734
0.1778003
0.180702
0.1833395
0.1856416
0.187561
0.1890632
0.1901161
0.1906939
0.1908406
0.1878497
0.1878537
0.1875579
0.1868929
0.1858653
0.184488
0.1827727
0.1807437
0.1784789
0.1760804
0.1736766
0.1714135
0.169446
0.1679558
0.1671216
0.1671016
0.1679506
0.16954
0.1716918
0.1741977
0.1768734
0.1795646
0.1821411
0.1845019
0.1865752
0.1883118
0.1896737
0.1906248
0.1911355
0.1912482
0.1881263
0.188165
0.1879381
0.1873788
0.1864978
0.1853131
0.1838416
0.1821095
0.1801869
0.1781657
0.1761619
0.1743091
0.1727474
0.1716135
0.1710276
0.1710728
0.1717673
0.173052
0.1748109
0.176901
0.1791729
0.1814872
0.1837241
0.18579
0.1876167
0.1891549
0.1903636
0.1912027
0.1916393
0.191714
0.188418
0.1884928
0.1883377
0.1878877
0.1871569
0.186168
0.1849424
0.1835081
0.1819253
0.1802735
0.1786508
0.1771687
0.1759425
0.1750789
0.1746628
0.174746
0.1753367
0.1763971
0.1778484
0.1795851
0.181489
0.1834446
0.1853504
0.1871247
0.188705
0.1900429
0.1910957
0.1918201
0.19218
0.1922151
0.1887113
0.188822
0.1887374
0.1883938
0.1878081
0.1870069
0.1860149
0.1848614
0.183597
0.182287
0.1810109
0.179858
0.1789189
0.1782754
0.1779903
0.1781002
0.1786099
0.179492
0.1806891
0.1821221
0.1837
0.1853312
0.1869328
0.1884354
0.1897835
0.1909308
0.191834
0.1924473
0.1927326
0.1927287
0.1889943
0.1891385
0.1891192
0.1888735
0.1884208
0.1877903
0.1870096
0.1861077
0.1851264
0.184118
0.1831446
0.182275
0.1815785
0.1811172
0.1809384
0.1810692
0.1815133
0.1822501
0.1832373
0.1844154
0.1857152
0.1870656
0.1884004
0.1896622
0.1908025
0.1917778
0.1925447
0.1930563
0.1932726
0.1932324
0.1892558
0.1894289
0.1894658
0.1893048
0.1889673
0.1884853
0.1878873
0.1872011
0.1864606
0.1857065
0.1849862
0.1843518
0.1838552
0.1835431
0.183451
0.1835993
0.183991
0.1846112
0.1854286
0.1863989
0.1874699
0.188587
0.1896981
0.1907561
0.1917188
0.1925463
0.1931957
0.1936194
0.1937762
0.1937047
0.1894841
0.1896783
0.1897579
0.1896639
0.1894206
0.1890616
0.1886153
0.1881064
0.1875621
0.1870136
0.1864965
0.1860497
0.1857118
0.1855179
0.1854945
0.1856573
0.1860089
0.1865386
0.1872233
0.1880302
0.18892
0.1898509
0.190782
0.1916747
0.1924928
0.1931995
0.1937536
0.194107
0.1942177
0.1941227
0.1896636
0.1898663
0.1899698
0.1899217
0.1897495
0.189487
0.1891606
0.1887913
0.1884001
0.1880106
0.1876495
0.1873458
0.1871287
0.1870245
0.1870534
0.1872277
0.1875496
0.1880116
0.1885966
0.18928
0.190032
0.1908204
0.1916126
0.1923772
0.1930831
0.1936969
0.1941796
0.1944839
0.1945665
0.1944602
0.1897724
0.1899642
0.1900673
0.1900416
0.1899171
0.1897252
0.1894879
0.189222
0.1889434
0.1886698
0.1884216
0.1882211
0.1880906
0.1880505
0.1881169
0.1882995
0.1886005
0.1890143
0.1895281
0.1901229
0.1907754
0.1914602
0.192151
0.1928216
0.1934452
0.1939927
0.194428
0.1947067
0.1947846
0.1946855
0.1897857
0.1899406
0.1900175
0.1899929
0.1898948
0.1897487
0.1895711
0.1893743
0.1891703
0.1889731
0.1887987
0.188665
0.1885905
0.1885917
0.1886821
0.1888698
0.189157
0.1895395
0.1900068
0.1905436
0.1911308
0.191747
0.1923701
0.1929777
0.1935466
0.1940514
0.194461
0.194736
0.1948347
0.1947679
0.1897136