/*--------------------------------*- C++ -*----------------------------------*\
| =========                 |                                                 |
| \\      /  F ield         | OpenFOAM: The Open Source CFD Toolbox           |
|  \\    /   O peration     | Version:  2506                                  |
|   \\  /    A nd           | Website:  www.openfoam.com                      |
|    \\/     M anipulation  |                                                 |
\*---------------------------------------------------------------------------*/
FoamFile
{
    version     2.0;
    format      ascii;
    arch        "LSB;label=32;scalar=64";
    class       volScalarField;
    location    "1500/air";
    object      k;
}
// * * * * * * * * * * * * * * * * * * * * * * * * * * * * * * * * * * * * * //

dimensions      [0 2 -2 0 0 0 0];

internalField   nonuniform List<scalar> 
33752
(
0.05565051
0.0552817
0.05496584
0.05473566
0.05456313
0.05442924
0.05432154
0.05423369
0.05416098
0.05410189
0.05405729
0.05402963
0.05402234
0.05403918
0.05408356
0.05415806
0.05426395
0.05440106
0.0545678
0.05476139
0.05497829
0.05521477
0.05546748
0.05573417
0.05601446
0.05631097
0.05663072
0.05698943
0.05741701
0.05788293
0.05526837
0.05466905
0.05422784
0.05393718
0.05373444
0.05358458
0.05346757
0.05337307
0.05329458
0.0532296
0.05317894
0.05314528
0.05313236
0.05314428
0.05318475
0.0532565
0.05336084
0.05349749
0.0536646
0.0538591
0.05407719
0.05431503
0.05456952
0.05483933
0.05512623
0.05543724
0.05578797
0.0562099
0.05676436
0.05745428
0.0549443
0.0542143
0.05365598
0.05328757
0.053035
0.05285149
0.05270905
0.05259282
0.05249491
0.05241136
0.05234296
0.05229283
0.05226544
0.05226568
0.05229793
0.0523654
0.05246956
0.05260992
0.05278418
0.05298859
0.0532187
0.05347025
0.05374024
0.05402828
0.05433842
0.05468199
0.05508156
0.05557819
0.05624201
0.05705301
0.05469769
0.05390208
0.05326179
0.05282351
0.05251623
0.05228955
0.05211062
0.05196086
0.05183181
0.05171825
0.0516212
0.0515447
0.05149445
0.05147668
0.05149695
0.05155927
0.0516654
0.05181461
0.05200378
0.05222805
0.05248174
0.05275959
0.05305812
0.05337726
0.05372241
0.05410731
0.05455753
0.05511649
0.05585277
0.05672247
0.05449922
0.05366995
0.05297518
0.05247901
0.05211698
0.0518409
0.05161651
0.0514228
0.05125158
0.05109661
0.0509596
0.05084606
0.05076363
0.05072058
0.05072433
0.05078016
0.05089034
0.05105377
0.05126614
0.0515208
0.05181004
0.05212674
0.05246608
0.05282737
0.05321613
0.05364663
0.05414475
0.05475284
0.05553572
0.0564338
0.05433143
0.05348423
0.0527523
0.05220897
0.05179463
0.0514652
0.05118795
0.05094119
0.05071761
0.05051018
0.05032168
0.05015975
0.05003486
0.04995826
0.04994006
0.04998746
0.05010354
0.05028673
0.05053103
0.05082711
0.05116418
0.05153215
0.05192378
0.05233673
0.05277553
0.05325386
0.05379664
0.05444439
0.05525861
0.05617013
0.0541844
0.05332653
0.05256717
0.05198425
0.05152064
0.05113558
0.05079927
0.05049188
0.05020697
0.04993663
0.04968493
0.04946245
0.0492836
0.04916391
0.04911731
0.04915371
0.04927735
0.04948605
0.04977144
0.05012047
0.05051794
0.05094946
0.05140428
0.05187747
0.05237187
0.05290001
0.05348562
0.05416758
0.05500512
0.05592332
0.05405229
0.05318686
0.05240518
0.0517874
0.05127713
0.05083541
0.05043534
0.05006181
0.04970807
0.0493645
0.04903679
0.04873908
0.04849041
0.04831383
0.04822934
0.04825108
0.04838495
0.04862751
0.04896653
0.04938324
0.04985555
0.05036309
0.05089168
0.05143322
0.05198854
0.05256888
0.05319702
0.05391066
0.05476779
0.05569005
0.05393227
0.05306049
0.05225924
0.05160951
0.05105475
0.05055657
0.05009019
0.04964757
0.04921797
0.04878904
0.04836883
0.04797948
0.04764956
0.04740699
0.04727888
0.04728449
0.04743143
0.04771434
0.04811562
0.04860972
0.04916879
0.04976657
0.05038048
0.0509981
0.05161922
0.05225424
0.05292533
0.05366973
0.05454495
0.0554706
0.05382369
0.0529461
0.05212704
0.05144762
0.0508506
0.05029755
0.04976509
0.04925215
0.04873882
0.04821429
0.04769307
0.04720111
0.04677396
0.04645154
0.04627054
0.04625713
0.04642114
0.04675488
0.04723272
0.04781934
0.04847678
0.04917087
0.0498751
0.05057504
0.05126584
0.05195714
0.05267138
0.05344597
0.05433863
0.05526785
0.05372749
0.05284455
0.05200935
0.05130273
0.0506665
0.05006191
0.04946642
0.04888304
0.04828394
0.04765994
0.04702853
0.04642209
0.04588672
0.04550399
0.04530131
0.04527837
0.04544181
0.04578948
0.04633946
0.04703127
0.04779778
0.04859616
0.04939562
0.05017736
0.05093702
0.05168405
0.05244031
0.05324391
0.05415331
0.05508644
0.05364528
0.05275808
0.05190885
0.05117836
0.05050741
0.04985682
0.04920425
0.04855527
0.04787277
0.04715041
0.04640793
0.04568459
0.04512322
0.04470569
0.0444615
0.0444213
0.04459753
0.04498086
0.04554136
0.04628537
0.04716493
0.04806912
0.0489616
0.04982275
0.05064737
0.05144529
0.05224008
0.05307017
0.05399494
0.05493213
0.05358168
0.05268993
0.05182918
0.05107928
0.05037992
0.04969141
0.04899164
0.04828568
0.04753013
0.0467202
0.04587734
0.0451246
0.04450362
0.04402513
0.04373863
0.04368165
0.04386936
0.04429075
0.04490959
0.0456783
0.04662337
0.04762447
0.04860045
0.04953089
0.0504116
0.05125313
0.05207998
0.05293223
0.05387
0.0548111
0.05353615
0.05264249
0.05177385
0.05101026
0.05029069
0.04957486
0.04884118
0.04809278
0.04728266
0.04640618
0.04549773
0.04472574
0.04404914
0.04352208
0.04320232
0.04313165
0.04332732
0.04377748
0.04444222
0.04526366
0.04622411
0.04729964
0.04833967
0.04932255
0.05024548
0.05111918
0.05196952
0.05283777
0.05378508
0.05472962
0.05351358
0.05261855
0.05174582
0.05097516
0.05024511
0.04951483
0.04876338
0.04799203
0.0471523
0.04623939
0.04531419
0.04451417
0.04380623
0.04325237
0.042914
0.04283536
0.04303489
0.04350033
0.04418998
0.04504285
0.04600992
0.04712689
0.04820207
0.04921323
0.0501585
0.05104926
0.05191213
0.05278888
0.05374136
0.0546881
0.05351446
0.05261958
0.05174693
0.05097628
0.05024618
0.04951579
0.04876417
0.04799267
0.04715278
0.04623972
0.04531441
0.04451428
0.04380625
0.04325233
0.0429139
0.04283523
0.04303473
0.04350015
0.04418981
0.04504267
0.04600977
0.04712675
0.04820198
0.04921323
0.05015861
0.05104946
0.05191243
0.05278928
0.05374196
0.05468902
0.05353857
0.05264544
0.05177705
0.05101351
0.0502938
0.04957768
0.04884353
0.04809468
0.0472841
0.04640717
0.04549836
0.04472606
0.04404921
0.04352195
0.04320204
0.04313125
0.04332684
0.04377693
0.04444165
0.04526308
0.04622358
0.04729917
0.04833938
0.0493226
0.05024595
0.05111997
0.05197061
0.0528392
0.05378713
0.05473284
0.05358473
0.05269449
0.05183422
0.0510844
0.05038482
0.04969587
0.04899537
0.04828868
0.04753239
0.0467217
0.04587802
0.04512502
0.04450368
0.04402487
0.04373813
0.04368094
0.0438685
0.04428978
0.04490856
0.04567727
0.04662238
0.04762361
0.04859994
0.04953128
0.05041339
0.05125563
0.05208296
0.05293575
0.05387441
0.05481736
0.05365162
0.05276446
0.05191547
0.051185
0.05051375
0.04986258
0.04920915
0.04855915
0.04787565
0.04715219
0.04640789
0.04568466
0.04512316
0.04470525
0.04446071
0.04442022
0.04459623
0.04497941
0.04553983
0.04628381
0.04716341
0.04806777
0.04896065
0.04982272
0.05064877
0.05144744
0.0522428
0.05307352
0.05399923
0.05493828
0.05373419
0.05285185
0.052017
0.05131039
0.05067383
0.05006858
0.04947211
0.04888759
0.04828727
0.04766213
0.04702956
0.04642239
0.04588645
0.04550331
0.04530017
0.04527687
0.04544003
0.04578752
0.04633735
0.04702912
0.04779571
0.04859426
0.04939402
0.05017622
0.0509364
0.05168393
0.05244069
0.05324488
0.05415505
0.05508927
0.05383056
0.0529538
0.05213518
0.05145578
0.05085842
0.05030469
0.04977122
0.04925701
0.04874245
0.04821664
0.04769429
0.04720139
0.04677345
0.04645042
0.0462689
0.04625508
0.04641876
0.04675229
0.04723002
0.04781663
0.04847417
0.04916845
0.04987292
0.05057313
0.0512643
0.05195597
0.05267061
0.05344567
0.05433891
0.05526883
0.05393889
0.05306811
0.05226737
0.05161768
0.05106259
0.05056374
0.05009638
0.04965249
0.04922158
0.04879144
0.04837006
0.04797962
0.04764882
0.04740551
0.0472768
0.04728193
0.04742852
0.04771122
0.0481124
0.04860652
0.04916566
0.0497636
0.05037773
0.05099561
0.05161701
0.05225234
0.05292378
0.05366855
0.05454412
0.05547025
0.05405832
0.05319401
0.05241288
0.05179517
0.05128459
0.05084224
0.05044123
0.05006651
0.04971151
0.04936671
0.04903783
0.04873909
0.04848949
0.0483121
0.04822694
0.04824815
0.04838164
0.04862395
0.04896285
0.04937955
0.04985196
0.05035963
0.05088841
0.05143017
0.05198575
0.05256639
0.05319483
0.05390871
0.05476563
0.05568834
0.05418965
0.05333299
0.0525742
0.05199135
0.05152744
0.05114177
0.0508046
0.05049612
0.05021006
0.04993857
0.04968574
0.04946222
0.04928243
0.04916193
0.04911464
0.04915049
0.04927372
0.04948214
0.04976736
0.05011634
0.05051384
0.05094547
0.05140046
0.05187387
0.05236855
0.05289698
0.05348291
0.05416516
0.05500293
0.05592146
0.05433591
0.05348997
0.05275859
0.05221529
0.05180063
0.05147061
0.05119255
0.05094482
0.05072019
0.05051171
0.05032216
0.05015924
0.05003343
0.04995602
0.04993711
0.04998393
0.05009956
0.05028242
0.05052651
0.05082249
0.05115956
0.05152762
0.05191942
0.0523326
0.0527717
0.05325034
0.05379346
0.05444154
0.0552561
0.05616799
0.05450314
0.05367513
0.05298084
0.05248462
0.05212221
0.05184553
0.05162039
0.05142579
0.05125363
0.05109768
0.05095969
0.0508452
0.05076188
0.05071803
0.05072107
0.0507763
0.05088599
0.05104906
0.05126118
0.05151572
0.05180494
0.05212172
0.05246123
0.05282278
0.05321184
0.05364269
0.05414116
0.05474961
0.05553287
0.05643135
0.0547014
0.05390699
0.05326705
0.05282858
0.05252083
0.05229354
0.05211388
0.05196328
0.05183335
0.05171886
0.05162088
0.05154348
0.05149238
0.05147381
0.05149338
0.05155509
0.05166073
0.05180955
0.05199846
0.05222259
0.05247626
0.05275418
0.05305289
0.05337229
0.05371776
0.05410302
0.05455362
0.05511295
0.05584963
0.05671974
0.05494814
0.05421916
0.05366099
0.05329223
0.0530391
0.05285494
0.05271177
0.05259475
0.05249598
0.05241156
0.05234227
0.05229127
0.05226306
0.05226253
0.0522941
0.05236098
0.05246464
0.05260463
0.05277862
0.05298289
0.05321298
0.05346461
0.05373478
0.05402308
0.05433355
0.05467749
0.05507744
0.05557446
0.05623868
0.0570501
0.0552724
0.05467378
0.05423245
0.05394128
0.05373791
0.05358738
0.05346967
0.05337444
0.05329516
0.05322936
0.05317788
0.0531434
0.0531297
0.0531409
0.05318072
0.05325191
0.05335579
0.05349208
0.05365895
0.05385332
0.0540714
0.05430933
0.05456402
0.0548341
0.05512133
0.0554327
0.05578382
0.05620614
0.056761
0.05745133
0.05565435
0.0552857
0.05496947
0.0547387
0.05456557
0.05443111
0.05432281
0.05423436
0.05416098
0.05410118
0.05405585
0.05402746
0.05401947
0.05403564
0.05407943
0.05415341
0.05425888
0.05439567
0.05456219
0.05475568
0.05497259
0.05520918
0.0554621
0.05572907
0.0560097
0.05630657
0.05662669
0.05698577
0.05741371
0.05788001
0.1027175
0.1025978
0.1024356
0.1022759
0.1021313
0.1020031
0.1018897
0.1017902
0.1017046
0.1016351
0.1015861
0.1015638
0.1015753
0.1016275
0.1017263
0.1018758
0.1020773
0.1023297
0.1026289
0.1029686
0.1033408
0.1037365
0.1041464
0.1045615
0.1049732
0.1053735
0.1057537
0.106102
0.1063966
0.1065825
0.102593
0.10237
0.1021231
0.1019082
0.1017275
0.1015739
0.1014402
0.1013229
0.1012209
0.1011356
0.1010718
0.101036
0.101036
0.1010791
0.1011717
0.1013183
0.1015201
0.1017759
0.102081
0.1024287
0.1028103
0.1032163
0.1036373
0.1040648
0.1044915
0.1049125
0.1053243
0.1057243
0.1061015
0.1063913
0.1024097
0.102103
0.1017646
0.1014757
0.1012376
0.1010372
0.1008629
0.1007078
0.1005697
0.10045
0.1003537
0.1002884
0.1002631
0.1002867
0.1003666
0.1005078
0.100712
0.1009772
0.1012981
0.1016665
0.1020723
0.1025051
0.1029547
0.1034128
0.1038736
0.1043351
0.1047988
0.1052683
0.1057342
0.1061076
0.1022091
0.1018484
0.1014363
0.1010757
0.1007727
0.1005127
0.1002815
0.1000706
0.09987781
0.09970465
0.0995574
0.09944569
0.09938081
0.09937391
0.09943435
0.09956827
0.0997776
0.1000597
0.1004077
0.1008114
0.1012583
0.1017356
0.1022318
0.1027379
0.1032485
0.1037632
0.104286
0.1048222
0.1053587
0.1057856
0.1020053
0.1016098
0.1011409
0.1007155
0.1003451
0.1000165
0.0997152
0.09943187
0.09916594
0.09891986
0.09870223
0.09852584
0.09840553
0.09835599
0.09838946
0.09851392
0.09873177
0.09903938
0.09942754
0.09988269
0.1003888
0.1009297
0.1014908
0.1020613
0.1026353
0.1032123
0.1037966
0.1043928
0.1049834
0.1054439
0.1018027
0.1013831
0.1008684
0.1003838
0.09994506
0.0995409
0.09915762
0.09878633
0.098429
0.09809005
0.09778145
0.09752052
0.09732727
0.0972214
0.0972194
0.09733193
0.09756211
0.09790492
0.09834781
0.09887251
0.09945769
0.100082
0.1007266
0.1013777
0.1020274
0.1026743
0.103322
0.1039735
0.1046074
0.1050907
0.1016033
0.1011649
0.1006109
0.1000705
0.09956234
0.0990766
0.09860076
0.09812703
0.09766063
0.09720865
0.09678756
0.09642078
0.09613529
0.09595781
0.09591071
0.09600846
0.09625527
0.09664421
0.09715811
0.09777212
0.09845757
0.09918608
0.09993312
0.1006806
0.1014179
0.102142
0.1028555
0.10356
0.1042315
0.1047322
0.1014085
0.100954
0.1003641
0.09976998
0.09919126
0.09861903
0.09804153
0.0974526
0.0968607
0.09627605
0.09572067
0.09522569
0.09482709
0.09456093
0.09445777
0.09453749
0.09480585
0.09525331
0.09585625
0.0965809
0.09738882
0.09824262
0.09911055
0.09996931
0.1008052
0.1016135
0.1023958
0.1031528
0.1038593
0.104375
0.101221
0.1007517
0.100128
0.09948151
0.09883183
0.09816995
0.09748417
0.09677013
0.09603886
0.09530383
0.09459354
0.09394844
0.09341572
0.09304274
0.09287159
0.09292974
0.0932252
0.09374488
0.09445604
0.0953128
0.09626465
0.09726356
0.09826904
0.09925203
0.1001956
0.1010937
0.1019472
0.1027569
0.1034972
0.1040272
0.1010445
0.1005613
0.09990576
0.09920892
0.09848947
0.09773756
0.09694067
0.09609606
0.09521612
0.09431782
0.09343648
0.09262207
0.09193528
0.09143839
0.09118763
0.09122096
0.09154906
0.09215506
0.09299221
0.09400094
0.09511579
0.09627548
0.09743046
0.09854635
0.09960319
0.1005938
0.1015194
0.1023814
0.1031547
0.1036984
0.1008842
0.1003883
0.09970333
0.09895949
0.09817402
0.09733557
0.09642997
0.09545574
0.09442555
0.09335928
0.0922989
0.09130468
0.09044717
0.08979889
0.0894483
0.08945174
0.08981936
0.09053853
0.09152488
0.09270287
0.09399144
0.09531914
0.09662852
0.09787903
0.09904885
0.1001306
0.1011262
0.1020382
0.1028428
0.1033996
0.100746
0.1002389
0.09952818
0.09874275
0.09789825
0.09698153
0.09597622
0.09488169
0.09370978
0.09248299
0.09124766
0.09006756
0.08901608
0.08823772
0.08780884
0.08778581
0.08818605
0.08898487
0.09011484
0.09148736
0.09295564
0.09444856
0.09590526
0.09728318
0.09855845
0.09972418
0.1007836
0.101741
0.1025738
0.1031426
0.1006363
0.10012
0.09938834
0.098569
0.09767603
0.09669447
0.0956057
0.0944095
0.09311643
0.09174994
0.09035594
0.08898869
0.08780239
0.08690947
0.08640656
0.0863593
0.08678885
0.08766624
0.08891605
0.09043477
0.09208016
0.09372214
0.09530777
0.0967946
0.0981594
0.09939579
0.1005085
0.1015035
0.1023597
0.1029386
0.10056
0.1000375
0.09929108
0.0984477
0.09752018
0.09649211
0.09534301
0.09407281
0.09269072
0.09121935
0.08970129
0.08821001
0.08691612
0.08593569
0.08537584
0.08530974
0.0857614
0.08669889
0.08803852
0.0896619
0.09144278
0.09319773
0.09487962
0.09644689
0.09787702
0.09916469
0.1003159
0.1013379
0.102211
0.1027974
0.1005218
0.09999604
0.09924202
0.09838613
0.09744057
0.09638809
0.09520723
0.09389788
0.09246815
0.09093927
0.08934561
0.0877979
0.08644646
0.08541846
0.08482741
0.08475085
0.0852144
0.08618453
0.08757303
0.08925551
0.09110647
0.0929221
0.09465556
0.09626569
0.09773042
0.0990451
0.1002165
0.1012528
0.1021348
0.1027252
0.100524
0.09999824
0.09924421
0.09838825
0.09744256
0.09638988
0.09520878
0.09389916
0.09246915
0.09093998
0.08934606
0.08779813
0.08644652
0.08541838
0.08482723
0.08475057
0.08521404
0.08618411
0.08757256
0.08925503
0.09110602
0.0929217
0.09465524
0.09626546
0.09773029
0.09904509
0.1002166
0.101253
0.1021352
0.1027257
0.1005662
0.1000438
0.09929745
0.09845386
0.09752594
0.0964973
0.0953475
0.09407652
0.09269359
0.0912214
0.08970254
0.08821064
0.08691625
0.08593542
0.08537523
0.08530885
0.08576026
0.08669756
0.08803707
0.08966043
0.09144137
0.09319648
0.0948786
0.09644619
0.09787667
0.09916467
0.1003162
0.1013386
0.1022121
0.1027989
0.100646
0.10013
0.09939834
0.09857865
0.09768503
0.09670257
0.09561267
0.09441521
0.09312082
0.09175301
0.09035774
0.08898946
0.08780236
0.08690879
0.08640534
0.08635761
0.08678678
0.08766388
0.08891354
0.09043227
0.09207775
0.09371997
0.09530599
0.09679335
0.09815878
0.09939572
0.1005089
0.1015044
0.1023613
0.102941
0.100759
0.1002519
0.09954103
0.09875507
0.09790969
0.09699176
0.09598498
0.09488881
0.09371521
0.09248665
0.0912496
0.09006819
0.08901562
0.08823638
0.08780677
0.08778313
0.08818289
0.08898138
0.09011122
0.09148372
0.09295214
0.09444537
0.09590253
0.09728108
0.09855707
0.09972343
0.1007834
0.1017414
0.1025749
0.1031445
0.100899
0.1004031
0.09971793
0.09897343
0.0981869
0.09734702
0.0964397
0.09546355
0.09443137
0.09336315
0.09230086
0.09130503
0.09044615
0.08979675
0.08944523
0.08944795
0.08981503
0.0905339
0.09152005
0.09269806
0.0939868
0.09531482
0.09662468
0.09787577
0.09904622
0.1001286
0.1011247
0.1020374
0.1028426
0.1034
0.1010599
0.1005768
0.09992093
0.09922336
0.09850273
0.09774926
0.09695049
0.09610382
0.09522174
0.09432134
0.09343803
0.09262184
0.09193349
0.09143532
0.09118351
0.09121604
0.09154355
0.09214921
0.0929862
0.09399495
0.09511001
0.09627007
0.09742552
0.09854194
0.09959935
0.1005905
0.1015167
0.1023792
0.103153
0.1036971
0.1012358
0.1007666
0.1001426
0.09949538
0.09884447
0.09818097
0.09749328
0.09677714
0.0960437
0.09530655
0.09459424
0.09394731
0.09341301
0.09303868
0.09286642
0.09292372
0.09321857
0.09373788
0.09444889
0.09530573
0.0962578
0.09725706
0.098263
0.09924651
0.1001907
0.1010893
0.1019433
0.1027535
0.1034943
0.1040245
0.1014219
0.1009676
0.1003773
0.09978241
0.09920244
0.09862862
0.09804926
0.0974583
0.09686432
0.09627761
0.09572029
0.09522352
0.09482335
0.09455584
0.09445157
0.09453043
0.09479819
0.09524527
0.09584807
0.09657277
0.09738092
0.09823508
0.09910346
0.09996274
0.1007992
0.1016081
0.1023908
0.1031483
0.1038551
0.1043711
0.1016146
0.1011764
0.100622
0.1000809
0.0995715
0.09908424
0.09860666
0.09813105
0.09766272
0.09720883
0.09678592
0.09641746
0.09613048
0.0959517
0.09590352
0.09600044
0.09624665
0.09663522
0.09714896
0.09776301
0.09844868
0.09917753
0.09992504
0.100673
0.1014109
0.1021356
0.1028496
0.1035546
0.1042264
0.1047274
0.1018117
0.1013923
0.1008772
0.1003918
0.09995193
0.09954636
0.09916149
0.0987885
0.09842943
0.09808875
0.09777849
0.09751602
0.09732137
0.0972143
0.09721128
0.097323
0.09755259
0.09789503
0.09833776
0.09886249
0.09944788
0.1000725
0.1007176
0.1013693
0.1020196
0.1026671
0.1033153
0.1039673
0.1046016
0.1050851
0.1020121
0.1016167
0.1011474
0.1007212
0.1003497
0.1000198
0.09971707
0.09943221
0.09916472
0.0989171
0.09869798
0.09852019
0.09839861
0.09834795
0.09838047
0.09850416
0.09872144
0.09902869
0.09941669
0.09987187
0.1003782
0.1009194
0.101481
0.1020521
0.1026267
0.1032042
0.1037891
0.1043859
0.1049768
0.1054376
0.1022141
0.1018534
0.1014409
0.1010795
0.1007753
0.1005141
0.1002816
0.1000693
0.09987512
0.09970057
0.09955198
0.09943901
0.09937297
0.09936504
0.0994246
0.0995578
0.0997666
0.1000484
0.1003963
0.1007999
0.101247
0.1017247
0.1022214
0.1027281
0.1032393
0.1037547
0.104278
0.1048147
0.1053517
0.1057788
0.1024133
0.1021066
0.1017677
0.1014779
0.1012387
0.1010371
0.1008615
0.1007051
0.1005658
0.1004449
0.1003473
0.1002809
0.1002545
0.1002771
0.1003563
0.1004968
0.1007005
0.1009654
0.1012861
0.1016545
0.1020606
0.1024938
0.1029439
0.1034025
0.103864
0.1043261
0.1047904
0.1052604
0.1057267
0.1061004
0.1025959
0.1023726
0.1021251
0.1019092
0.1017274
0.1015725
0.1014377
0.1013192
0.101216
0.1011296
0.1010646
0.1010278
0.1010268
0.101069
0.101161
0.1013069
0.1015083
0.1017637
0.1020688
0.1024166
0.1027984
0.1032048
0.1036263
0.1040543
0.1044818
0.1049034
0.1053158
0.1057164
0.1060939
0.106384
0.1027199
0.1025998
0.1024367
0.102276
0.1021302
0.1020009
0.1018864
0.1017858
0.1016991
0.1016285
0.1015784
0.1015552
0.1015658
0.1016172
0.1017153
0.1018642
0.1020653
0.1023174
0.1026166
0.1029564
0.1033288
0.1037249
0.1041354
0.104551
0.1049635
0.1053645
0.1057452
0.1060941
0.106389
0.1065751
0.1214662
0.1214133
0.1213294
0.1212338
0.1211374
0.121045
0.1209582
0.1208789
0.1208096
0.1207546
0.1207202
0.1207143
0.1207452
0.1208208
0.1209477
0.1211299
0.1213689
0.1216625
0.1220056
0.1223905
0.1228072
0.1232445
0.1236906
0.1241337
0.1245619
0.1249634
0.1253252
0.1256315
0.1258619
0.1259896
0.1213965
0.1213105
0.1211883
0.1210592
0.1209349
0.1208184
0.1207098
0.1206097
0.1205204
0.1204461
0.1203937
0.1203715
0.1203886
0.1204537
0.1205738
0.1207536
0.1209942
0.1212935
0.1216458
0.1220427
0.1224733
0.122926
0.1233883
0.1238485
0.1242951
0.1247174
0.1251042
0.1254418
0.1257092
0.1258698
0.1212761
0.1211524
0.1209778
0.1207966
0.1206242
0.1204631
0.1203119
0.1201703
0.1200402
0.1199265
0.1198368
0.1197809
0.1197695
0.1198128
0.1199192
0.1200939
0.1203385
0.1206502
0.1210223
0.1214447
0.1219052
0.1223905
0.1228872
0.1233828
0.1238663
0.1243282
0.1247587
0.125145
0.1254629
0.1256609
0.1211233
0.1209671
0.1207407
0.1205013
0.1202694
0.1200486
0.1198372
0.1196345
0.1194434
0.1192696
0.1191225
0.1190144
0.1189587
0.1189682
0.1190534
0.1192209
0.1194723
0.1198042
0.1202081
0.1206715
0.1211795
0.121716
0.1222656
0.1228146
0.1233515
0.123867
0.1243518
0.1247925
0.1251598
0.1253898
0.1209502
0.1207672
0.1204936
0.1201949
0.1198969
0.1196049
0.1193181
0.119036
0.1187635
0.1185081
0.1182822
0.1181019
0.1179845
0.1179469
0.1180027
0.1181605
0.1184224
0.1187838
0.1192334
0.1197552
0.12033
0.1209378
0.1215598
0.1221798
0.122785
0.1233654
0.1239111
0.124407
0.1248195
0.1250756
0.1207646
0.1205586
0.1202414
0.1198839
0.1195151
0.1191425
0.1187664
0.1183875
0.1180133
0.1176541
0.1173267
0.1170522
0.1168539
0.1167542
0.1167714
0.116917
0.1171937
0.1175951
0.1181064
0.1187062
0.1193692
0.1200699
0.1207845
0.1214932
0.1221809
0.1228361
0.1234478
0.1239992
0.1244534
0.1247318
0.1205713
0.1203447
0.1199863
0.1195699
0.1191266
0.1186654
0.1181877
0.1176955
0.1171996
0.1167142
0.1162613
0.1158691
0.1155688
0.1153905
0.1153589
0.1154893
0.1157857
0.1162394
0.1168302
0.1175295
0.118304
0.1191203
0.1199482
0.1207632
0.1215469
0.1222862
0.1229688
0.1235767
0.1240708
0.1243693
0.1203749
0.1201288
0.1197306
0.1192551
0.1187345
0.1181782
0.1175882
0.116968
0.1163319
0.1156984
0.115096
0.1145618
0.1141372
0.1138625
0.1137708
0.1138832
0.1142048
0.114724
0.1154137
0.1162355
0.1171456
0.1181004
0.1190619
0.1199997
0.120892
0.1217238
0.1224819
0.1231476
0.1236811
0.1239989
0.1201803
0.1199156
0.1194786
0.1189445
0.118345
0.1176892
0.1169793
0.1162196
0.1154277
0.1146267
0.1138527
0.1131533
0.1125824
0.1121932
0.11203
0.1121211
0.1124738
0.1130724
0.1138807
0.1148478
0.1159165
0.1170311
0.1181441
0.1192189
0.12023
0.1211608
0.1219978
0.1227226
0.1232952
0.1236318
0.1199935
0.119711
0.119237
0.1186458
0.1179681
0.117212
0.1163788
0.1154732
0.1145155
0.1135332
0.1125706
0.1116869
0.1109506
0.1104304
0.1101844
0.1102512
0.1106409
0.1113323
0.1122772
0.1134094
0.1146557
0.1159466
0.117224
0.118445
0.1195809
0.1206139
0.1215311
0.1223146
0.1229257
0.1232807
0.1198216
0.1195227
0.1190142
0.1183694
0.1176175
0.1167647
0.1158109
0.1147605
0.1136356
0.1124676
0.1113088
0.11023
0.1093144
0.1086499
0.1083109
0.1083499
0.1087834
0.1095786
0.1106748
0.111986
0.1134207
0.1148952
0.1163414
0.1177103
0.1189706
0.1201042
0.1210991
0.121939
0.1225866
0.1229591
0.1196721
0.1193588
0.1188201
0.1181278
0.1173093
0.1163691
0.1153046
0.1141198
0.1128378
0.1114929
0.1101437
0.1088708
0.1077701
0.1069578
0.1065301
0.1065436
0.1070146
0.1079128
0.1091698
0.1106631
0.1122846
0.1139375
0.1155449
0.1170531
0.1184292
0.1196554
0.1207212
0.1216121
0.1222926
0.1226807
0.1195528
0.1192278
0.1186644
0.1179334
0.1170603
0.1160476
0.1148905
0.1135925
0.1121764
0.1106786
0.1091619
0.1077117
0.1064522
0.1055184
0.1050129
0.1050031
0.1055081
0.1064936
0.1078766
0.1095399
0.1113301
0.1131397
0.1148866
0.116514
0.1179881
0.119292
0.1204168
0.12135
0.1220575
0.1224586
0.1194701
0.1191368
0.1185561
0.1177976
0.1168855
0.1158208
0.1145969
0.1132165
0.1117023
0.1100915
0.1084493
0.106864
0.1054914
0.1044656
0.1039011
0.1038734
0.1044041
0.1054554
0.1069349
0.1087141
0.1106375
0.1125651
0.1144153
0.11613
0.1176755
0.1190356
0.120203
0.1211664
0.1218933
0.1223037
0.119429
0.1190915
0.1185017
0.1177288
0.1167964
0.1157044
0.1144453
0.1130215
0.1114552
0.109784
0.1080739
0.1064184
0.104984
0.1039082
0.1033116
0.103274
0.1038185
0.1049054
0.106437
0.1082769
0.1102726
0.1122637
0.114169
0.11593
0.1175131
0.1189029
0.1200925
0.1210718
0.1218089
0.1222241
0.1194323
0.1190947
0.1185049
0.1177318
0.1167992
0.1157069
0.1144475
0.1130233
0.1114566
0.1097851
0.1080747
0.1064189
0.1049842
0.1039082
0.1033114
0.1032736
0.103818
0.1049048
0.1064364
0.1082763
0.110272
0.1122631
0.1141684
0.1159295
0.1175127
0.1189025
0.1200922
0.1210716
0.1218088
0.1222241
0.1194797
0.1191463
0.1185653
0.1178063
0.1168937
0.1158281
0.1146033
0.1132219
0.1117066
0.1100948
0.1084515
0.1068652
0.1054919
0.1044654
0.1039004
0.1038722
0.1044026
0.1054536
0.106933
0.1087121
0.1106355
0.1125633
0.1144136
0.1161286
0.1176743
0.1190346
0.1202022
0.1211659
0.121893
0.1223036
0.1195683
0.119243
0.1186793
0.1179475
0.1170734
0.1160593
0.1149007
0.113601
0.1121832
0.1106837
0.1091653
0.1077135
0.1064528
0.1055179
0.1050115
0.105001
0.1055055
0.1064905
0.1078733
0.1095365
0.1113268
0.1131366
0.1148838
0.1165114
0.1179859
0.1192902
0.1204153
0.1213489
0.1220567
0.1224581
0.1196928
0.1193792
0.1188398
0.1181464
0.1173265
0.1163844
0.1153178
0.1141309
0.1128465
0.1114993
0.1101479
0.108873
0.1077706
0.1069568
0.106528
0.1065405
0.1070107
0.1079084
0.1091652
0.1106583
0.1122799
0.113933
0.1155408
0.1170494
0.1184259
0.1196526
0.1207188
0.1216101
0.122291
0.1226794
0.1198465
0.1195472
0.1190379
0.1183917
0.1176378
0.1167828
0.1158264
0.1147733
0.1136456
0.1124749
0.1113134
0.1102322
0.1093146
0.1086483
0.1083079
0.1083457
0.1087783
0.1095729
0.1106687
0.1119798
0.1134146
0.1148893
0.1163359
0.1177052
0.118966
0.1201
0.1210954
0.1219358
0.1225838
0.1229566
0.1200217
0.1197387
0.1192635
0.1186706
0.1179907
0.1172319
0.1163958
0.115487
0.1145262
0.1135408
0.1125752
0.1116888
0.1109501
0.110428
0.1101804
0.1102458
0.1106346
0.1113253
0.1122698
0.1134019
0.1146483
0.1159393
0.1172171
0.1184386
0.1195749
0.1206084
0.121526
0.12231
0.1229215
0.1232768
0.1202107
0.1199454
0.1195071
0.118971
0.1183689
0.1177102
0.116997
0.1162338
0.1154385
0.1146341
0.1138569
0.1131547
0.1125813
0.1121899
0.1120249
0.1121146
0.1124663
0.1130642
0.113872
0.114839
0.1159077
0.1170226
0.1181359
0.1192111
0.1202227
0.121154
0.1219915
0.1227166
0.1232895
0.1236264
0.1204068
0.12016
0.1197602
0.1192825
0.1187591
0.1181994
0.1176059
0.116982
0.1163423
0.1157052
0.1150996
0.1145624
0.1141352
0.1138582
0.1137647
0.1138756
0.1141961
0.1147146
0.1154038
0.1162255
0.1171356
0.1180906
0.1190524
0.1199906
0.1208834
0.1217156
0.1224742
0.1231403
0.1236741
0.123992
0.120604
0.1203766
0.1200165
0.1195976
0.1191512
0.1186865
0.118205
0.1177089
0.1172092
0.1167202
0.116264
0.1158688
0.1155659
0.1153853
0.1153518
0.1154808
0.1157761
0.1162289
0.1168193
0.1175183
0.1182929
0.1191093
0.1199375
0.1207529
0.1215371
0.1222768
0.1229599
0.1235681
0.1240626
0.1243612
0.1207978
0.120591
0.1202718
0.1199116
0.1195394
0.1191631
0.1187831
0.1184002
0.1180221
0.1176593
0.1173285
0.117051
0.11685
0.1167481
0.1167635
0.1169075
0.1171831
0.1175837
0.1180945
0.118694
0.119357
0.1200578
0.1207727
0.1214818
0.12217
0.1228256
0.1234378
0.1239896
0.1244441
0.1247226
0.1209839
0.1207998
0.1205241
0.1202225
0.1199209
0.119625
0.119334
0.1190479
0.1187714
0.1185123
0.1182831
0.1180997
0.1179797
0.1179399
0.1179939
0.1181502
0.118411
0.1187715
0.1192206
0.1197421
0.1203169
0.1209248
0.121547
0.1221675
0.1227732
0.1233539
0.1239001
0.1243964
0.1248092
0.1250655
0.1211574
0.121
0.1207714
0.1205288
0.1202931
0.1200682
0.1198525
0.1196456
0.1194505
0.1192729
0.1191225
0.1190114
0.1189532
0.1189605
0.1190439
0.1192099
0.1194602
0.1197913
0.1201946
0.1206577
0.1211656
0.1217022
0.1222521
0.1228015
0.1233388
0.1238548
0.12434
0.1247811
0.1251487
0.1253789
0.1213106
0.1211857
0.1210087
0.1208241
0.1206477
0.1204823
0.1203267
0.1201807
0.1200466
0.1199292
0.1198361
0.1197773
0.1197633
0.1198045
0.1199091
0.1200824
0.1203259
0.1206367
0.1210082
0.1214304
0.1218908
0.1223762
0.1228731
0.1233691
0.1238531
0.1243154
0.1247463
0.125133
0.1254512
0.1256493
0.1214314
0.1213441
0.1212193
0.1210867
0.1209583
0.1208373
0.1207242
0.1206197
0.1205262
0.1204483
0.1203925
0.1203674
0.120382
0.1204449
0.1205633
0.1207416
0.1209812
0.1212797
0.1216315
0.122028
0.1224586
0.1229113
0.1233739
0.1238344
0.1242815
0.1247043
0.1250915
0.1254294
0.1256971
0.1258578
0.1215013
0.1214469
0.1213604
0.1212612
0.1211606
0.1210636
0.1209723
0.1208886
0.1208151
0.1207564
0.1207187
0.1207099
0.1207383
0.1208118
0.120937
0.1211178
0.1213557
0.1216485
0.1219911
0.1223757
0.1227923
0.1232297
0.1236761
0.1241195
0.1245481
0.1249501
0.1253123
0.125619
0.1258496
0.1259775
0.1323345
0.1323109
0.1322695
0.132218
0.1321622
0.1321053
0.1320495
0.1319971
0.1319518
0.1319187
0.1319052
0.1319196
0.1319708
0.1320671
0.1322151
0.1324189
0.1326795
0.1329945
0.1333581
0.1337616
0.1341944
0.134644
0.1350977
0.1355423
0.1359648
0.1363521
0.1366909
0.1369667
0.1371642
0.1372681
0.1322876
0.1322519
0.1321919
0.1321198
0.1320431
0.1319656
0.1318891
0.1318159
0.1317499
0.1316968
0.1316642
0.1316615
0.1316983
0.1317837
0.131925
0.1321265
0.1323895
0.1327111
0.133085
0.133502
0.1339502
0.1344167
0.1348879
0.1353503
0.1357907
0.1361962
0.1365536
0.1368483
0.1370631
0.1371787
0.1322
0.132146
0.1320555
0.1319472
0.131832
0.1317148
0.1315978
0.1314834
0.131376
0.1312821
0.1312109
0.1311733
0.1311806
0.1312437
0.1313712
0.1315682
0.1318361
0.1321714
0.1325668
0.1330113
0.1334915
0.1339925
0.1344993
0.1349975
0.1354734
0.1359141
0.1363061
0.136634
0.1368774
0.1370105
0.1320799
0.1320059
0.1318795
0.1317255
0.1315589
0.1313864
0.1312108
0.1310354
0.1308657
0.1307101
0.1305797
0.1304881