/*--------------------------------*- C++ -*----------------------------------*\
| =========                 |                                                 |
| \\      /  F ield         | OpenFOAM: The Open Source CFD Toolbox           |
|  \\    /   O peration     | Version:  2506                                  |
|   \\  /    A nd           | Website:  www.openfoam.com                      |
|    \\/     M anipulation  |                                                 |
\*---------------------------------------------------------------------------*/
FoamFile
{
    version     2.0;
    format      ascii;
    arch        "LSB;label=32;scalar=64";
    class       volScalarField;
    location    "1500/air";
    object      qr;
}
// * * * * * * * * * * * * * * * * * * * * * * * * * * * * * * * * * * * * * //

dimensions      [1 0 -3 0 0 0 0];

internalField   uniform 0;

boundaryField
{
    maxY
    {
        type            calculated;
        value           uniform 0;
    }
    minX
    {
        type            calculated;
        value           uniform 0;
    }
    maxX
    {
        type            calculated;
        value           uniform 0;
    }
    minY
    {
        type            calculated;
        value           uniform 0;
    }
    maxZ
    {
        type            calculated;
        value           uniform 0;
    }
    air_to_solid
    {
        type            greyDiffusiveRadiationViewFactor;
        value           nonuniform List<scalar> 
1536
(
0.8255585
0.4463526
0.3191714
0.2630845
0.2307946
0.2914546
0.5664437
0.07471676
-0.05844114
-0.1198015
-0.1594907
-0.1043661
0.4872659
-0.008556656
-0.1438503
-0.2075261
-0.2500394
-0.1981687
0.4797222
-0.01757255
-0.1540448
-0.2191984
-0.2634439
-0.2137967
0.5004751
0.001965742
-0.1350008
-0.2006999
-0.2456302
-0.1965078
0.6217579
0.1274995
-0.008792392
-0.07407411
-0.1182386
-0.06865161
-1.088225
1.397439
-106.6555
-2.664293
-107.5034
-2.746341
-107.6098
-2.759788
-107.6246
-2.750637
-107.5938
-2.648757
-107.4474
-4.346906
0.4681814
-106.7397
-107.8806
-107.9894
-108.0044
-107.9744
-107.8245
-6.070924
0.4007133
-106.8434
-107.9863
-108.0963
-108.1119
-108.082
-107.9313
-6.212948
0.3942153
-106.859
-108.0017
-108.1119
-108.1275
-108.0976
-107.947
-6.262597
0.4056
-106.8297
-107.9724
-108.0823
-108.0977
-108.0678
-107.9172
-6.260919
0.507407
-106.683
-107.821
-107.9291
-107.944
-107.9139
-107.7646
-6.133686
-1.585745
-3.157016
-3.238894
-3.252074
-3.242568
-3.140204
-0.08703738
-1.276538
-1.326443
-1.404443
-1.415485
-1.429752
-1.431377
-1.427576
-1.420541
-1.357069
-1.312508
-1.442813
1.975485
1.833114
0.5056857
0.6137763
0.1876955
0.3398853
0.1252687
0.01443946
0.2749939
-0.007254529
-0.05473456
0.2349107
-0.06797221
-0.1008244
0.2592356
-0.1067144
-0.08272883
0.4023951
-0.05076543
0.08368535
-2.709392
-3.405667
1.787874
1.722019
0.137574
0.4960681
0.0640199
-0.03664104
0.0006982156
-0.1119534
-0.1063842
-0.1341771
-0.1834294
-0.1533514
-0.1973448
-0.2325285
-0.1361869
-0.2392688
-0.2177866
0.0295684
-0.1866191
-0.0575029
-3.469719
-3.583192
1.714091
1.706851
0.05479393
0.4792235
0.04575192
-0.1215253
-0.01772248
-0.1313451
-0.1934852
-0.1539554
-0.2044589
-0.243148
-0.2188219
-0.2554597
-0.2291105
-0.262727
-0.2430835
-0.07075179
-0.212682
-0.08905169
-3.60397
-3.640355
1.706964
1.714874
0.0459472
0.4907207
0.05614669
-0.1313873
-0.007563189
-0.1217068
-0.2047658
-0.1444887
-0.1955672
-0.2560905
-0.2101453
-0.2474902
-0.2440994
-0.2550135
-0.236113
-0.09094585
-0.2059097
-0.0838843
-3.646747
-3.648329
1.723026
1.789583
0.06573468
0.5735693
0.1403147
-0.1122288
0.07672235
-0.0370889
-0.1861184
-0.05981121
-0.1107375
-0.2380976
-0.125255
-0.1623606
-0.2267492
-0.1697968
-0.1506745
-0.07427999
-0.1203662
0.002416629
-3.639902
-3.561827
1.835089
1.844735
0.1907469
0.8323458
0.5054254
-0.5711882
-1.707019
0.01391438
0.4446945
0.3335987
-1.756724
-1.833993
-0.05962949
0.3111898
0.2614395
-1.844757
-1.85809
-0.1109164
0.2475091
0.212747
-1.85937
-1.854423
-0.09893475
0.2062575
0.2270053
-1.846965
-1.782076
0.0533166
0.2564636
0.3583874
-3.508863
-1.736992
-2.919876
-1.595339
-2.616795
-107.4461
0.5110264
-106.6835
-107.7617
-2.736535
-107.596
-107.8215
-107.9156
-2.758385
-107.625
-107.9296
-107.9448
-2.756894
-107.6077
-107.9445
-107.9282
-2.691458
-107.5035
-107.9144
-107.8233
-2.347994
-107.7271
-107.7652
-6.004804
-108.3549
-107.8203
0.4076793
-106.8298
-107.9118
-107.9753
-107.9726
-108.0682
-108.0047
-108.0825
-108.0981
-107.9883
-108.0979
-108.0819
-107.883
-108.068
-107.9762
-108.4123
-107.9174
-6.190198
-108.5045
-107.9254
0.394452
-106.859
-107.9408
-108.0821
-108.0017
-108.0976
-108.1121
-108.1119
-108.1277
-108.0958
-108.1275
-108.1115
-107.9901
-108.0976
-108.0058
-108.5184
-107.947
-6.254631
-108.5345
-107.9408
0.3990818
-106.8433
-107.9253
-108.0976
-107.9862
-108.082
-108.1277
-108.0963
-108.112
-108.1115
-108.1118
-108.0957
-108.0058
-108.0819
-107.99
-108.5345
-107.9311
-6.268255
-108.5182
-107.9116
0.4648923
-106.7393
-107.82
-108.0681
-107.8802
-107.9749
-108.098
-107.989
-108.0043
-108.0817
-108.0041
-107.9879
-107.976
-107.974
-107.8826
-108.5042
-107.824
-6.185907
-108.4117
-107.7612
1.291056
-106.7454
-3.109535
-107.5868
-107.9151
-107.6441
-3.229142
-107.7367
-107.9443
-107.7505
-3.250746
-107.7658
-107.9277
-107.7654
-3.248925
-107.7485
-107.8227
-107.7346
-3.183041
-107.6442
-108.3541
-107.588
-4.604431
-2.64458
-107.817
0.5516143
0.6828392
0.7546794
-0.1406751
2.151793
-0.2130698
2.005216
0.2488339
0.4009256
0.2953065
-0.3968047
-0.4354055
0.1474099
0.3023365
0.1649228
-0.4958614
-0.5052929
0.09412877
0.2521148
0.1059326
-0.5213188
-0.5241716
0.0701414
0.231831
0.07003917
-0.5198398
-0.5097847
0.1751823
0.3380119
0.1278061
-0.4214344
-0.3680584
-1.550274
-1.377252
0.3118345
0.3459948
0.5331005
1.8001
1.768425
-0.008294525
0.02710251
0.03951091
-0.1124281
-0.07642662
-0.09428728
-0.1691097
-0.1324221
-0.1562878
-0.1979694
-0.160418
-0.1968124
-0.09435287
-0.05600092
-0.1425015
-1.562827
-1.607986
0.2595882
0.2647597
0.4823636
1.72651
1.722539
-0.06207865
-0.05669644
-0.01385496
-0.1681435
-0.1623703
-0.1495045
-0.227043
-0.2208007
-0.2136341
-0.2585286
-0.2517353
-0.2566742
-0.1584919
-0.1508851
-0.2055109
-1.683577
-1.696506
0.2579266
0.256345
0.4814532
1.721476
1.723323
-0.06463019
-0.06595315
-0.01618299
-0.1717833
-0.17291
-0.152851
-0.2319901
-0.232879
-0.2182338
-0.2650235
-0.2656282
-0.2627557
-0.1669483
-0.1672726
-0.2133994
-1.717443
-1.719821
0.292169
0.2767023
0.5158642
1.741471
1.75616
-0.03113479
-0.04656587
0.01739979
-0.1385025
-0.153987
-0.1195102
-0.1990269
-0.2145388
-0.1851824
-0.2324489
-0.2479897
-0.2300873
-0.1342773
-0.149972
-0.1808866
-1.70674
-1.691094
0.4667117
0.3997175
0.6859557
1.858888
1.921825
0.1500266
0.07926034
0.1979887
0.04323944
-0.02770609
0.06215475
-0.01655164
-0.08775265
-0.002969313
-0.04858968
-0.1204105
-0.04656517
0.04900146
-0.02214769
0.003051752
-1.577017
-1.511341
-0.2913682
-0.2206324
-0.4197751
-0.4612168
-0.5310021
-0.5438237
-0.5708685
-0.5776873
-0.5861429
-0.5806575
-0.5069549
-0.4598565
-107.2428
-107.169
-2.247039
-106.5393
0.7531864
-107.6668
-107.5453
-2.698052
-107.6246
-107.7399
-107.6183
-2.752347
-107.7315
-107.7436
-107.622
-2.760355
-107.7462
-107.6956
-107.5736
-2.739369
-107.7157
-107.5081
-107.3849
-2.5957
-107.5683
-107.5078
-107.4667
-106.7806
0.4388236
-107.9659
-107.9237
-107.9226
-108.0404
-107.9978
-108.0319
-108.0446
-108.002
-108.047
-107.997
-107.9543
-108.0171
-107.8061
-107.764
-107.8668
-107.579
-107.5707
-106.8518
0.3970663
-108.0382
-108.0299
-107.9946
-108.1134
-108.105
-108.1048
-108.118
-108.1095
-108.1203
-108.0703
-108.0618
-108.0904
-107.879
-107.8704
-107.9398
-107.5839
-107.5861
-106.8568
0.3945388
-108.0431
-108.0453
-107.9995
-108.1184
-108.1206
-108.1097
-108.1229
-108.1252
-108.1253
-108.0752
-108.0774
-108.0954
-107.8839
-107.8862
-107.9447
-107.5369
-107.5569
-106.8096
0.4169975
-107.9958
-108.016
-107.9523
-108.0705
-108.0909
-108.0619
-108.0749
-108.0954
-108.0773
-108.0272
-108.0477
-108.0473
-107.8359
-107.8563
-107.8967
-107.3369
-107.409
-106.6127
0.5714324
-107.7868
-107.8638
-107.7443
-107.8601
-107.9375
-107.8517
-107.864
-107.9415
-107.8665
-107.8161
-107.8938
-107.8362
-107.628
-107.7045
-107.6877
-0.3441348
-0.2765567
-0.04457242
-0.9634498
-0.8268466
-1.127277
-1.196007
-1.046766
-0.4823911
-0.463069
-1.17775
-1.362461
-1.214249
-1.257
-1.387607
-1.239804
-0.5173336
-0.512154
-1.268333
-1.422499
-1.275612
-1.2833
-1.426957
-1.280302
-0.5245083
-0.5254942
-1.285092
-1.431898
-1.28574
-1.281583
-1.430895
-1.284834
-0.4635343
-0.491893
-1.274603
-1.408134
-1.26219
-1.211011
-1.387855
-1.241873
-0.557397
-0.3449272
-1.166369
-1.269638
-1.124345
-1.331009
-1.355904
-1.160175
1.845641
1.909089
2.002313
1.966527
2.064865
1.938516
1.893583
1.998697
0.4361396
0.5821155
0.3561519
0.4611472
0.677193
0.3946116
0.3395238
0.2574112
0.2709729
0.2134364
0.3663119
0.1862933
0.1486397
0.195631
0.07790239
0.1129344
0.08555415
0.04197526
0.1322905
0.2879126
0.1186303
0.04624429
0.06397575
-0.02511055
0.03087895
0.01693213
-0.04060827
0.08359276
0.2424668
0.0751191
-0.008264405
0.003905877
-0.0803864
-0.01921082
-0.02813124
-0.09159697
0.07783743
0.2404314
0.09593465
-0.03404845
-0.03368698
-0.1073926
-0.02677516
-0.008947694
-0.1003888
0.2306279
0.3886565
0.2514908
0.07099389
0.02297507
-0.002386713
0.1277332
0.1554645
0.05501789
-1.502679
-1.428724
-2.543779
-3.177393
-2.579699
-2.723183
-3.321596
-2.646268
1.734194
1.747335
1.893235
1.756329
1.861716
1.827633
1.735254
1.840726
0.1868695
0.221483
0.1026131
0.288736
0.5105256
0.2738636
0.1635494
0.07911502
0.1485467
-0.04454301
-0.008973235
-0.07235585
-0.03207428
0.01587793
-0.04736132
-0.06846389
-0.09641029
-0.08386067
-0.1282458
-0.09208725
-0.1427014
-0.1367752
-0.1184997
-0.1525836
-0.152736
-0.1673422
-0.1686682
-0.1807705
-0.143874
-0.1904589
-0.1940944
-0.1811046
-0.2104874
-0.2059317
-0.2158073
-0.222475
-0.1914266
-0.1536572
-0.1741487
-0.2237225
-0.222368
-0.2408044
-0.217376
-0.2003061
-0.2346408
-0.03730393
0.001384528
-0.009928069
-0.1210278
-0.1688955
-0.1390504
-0.06446377
-0.0380571
-0.08296712
-1.665798
-1.641433
-2.786042
-3.518625
-2.833806
-2.896265
-3.555584
-2.869676
1.720654
1.720862
1.819923
1.709774
1.815857
1.813557
1.707637
1.814012
0.134135
0.1393692
0.04952417
0.2569606
0.4799579
0.2560233
0.1314507
0.04680109
0.1304444
-0.09878477
-0.09331558
-0.1270835
-0.06490501
-0.01662184
-0.06605605
-0.1016809
-0.1300515
-0.1028857
-0.1844779
-0.1785929
-0.1994792
-0.1713085
-0.1525796
-0.1727608
-0.1877395
-0.2028374
-0.1892641
-0.2393141
-0.232942
-0.2496485
-0.2306224
-0.2171065
-0.2324289
-0.2430046
-0.2534529
-0.2449014
-0.2527219
-0.2457619
-0.2362486
-0.2625946
-0.2606094
-0.2648226
-0.2569244
-0.2406065
-0.2592657
-0.1033131
-0.09529356
-0.07958569
-0.1632543
-0.2100577
-0.1660456
-0.1084194
-0.08541038
-0.1114681
-1.712825
-1.705988
-2.916076
-3.619583
-2.930829
-2.950168
-3.631444
-2.941925
1.732205
1.726627
1.814046
1.707974
1.815475
1.82331
1.710334
1.818287
0.1321896
0.1306904
0.04738862
0.2611929
0.4848454
0.2669901
0.1353683
0.05050078
0.1410783
-0.1015848
-0.1028603
-0.1301507
-0.06163126
-0.01313902
-0.05608356
-0.09861382
-0.1272019
-0.09308298
-0.1884253
-0.1894965
-0.2037462
-0.1689259
-0.1499562
-0.1634767
-0.1856046
-0.200964
-0.1801705
-0.2446242
-0.2454434
-0.2553365
-0.2293133
-0.2155084
-0.2239784
-0.241995
-0.2527566
-0.2366857
-0.2596529
-0.2601783
-0.2436423
-0.262563
-0.2602403
-0.2573675
-0.257237
-0.2412675
-0.2520614
-0.1126786
-0.1128895
-0.09108285
-0.1646323
-0.2110662
-0.1594459
-0.1103898
-0.08901135
-0.1051536
-1.715614
-1.719494
-2.955985
-3.650591
-2.959349
-2.956439
-3.651404
-2.959787
1.811911
1.778762
1.831966
1.736488
1.845987
1.900306
1.757795
1.867889
0.1661699
0.1507166
0.08118408
0.3158449
0.5393454
0.3505631
0.1899316
0.1050268
0.2249639
-0.06814362
-0.08359365
-0.09675678
-0.007214915
0.0412697
0.02832269
-0.04416824
-0.07273506
-0.008559288
-0.1552139
-0.1707067
-0.1706134
-0.1144582
-0.09548507
-0.07875265
-0.1311391
-0.1465093
-0.09539726
-0.2117569
-0.2272739
-0.2225691
-0.1748875
-0.1610696
-0.1390183
-0.187579
-0.1983527
-0.1516456
-0.2271546
-0.2427027
-0.2111781
-0.2081848
-0.2058527
-0.1720708
-0.2028554
-0.1868504
-0.1666934
-0.07973141
-0.09556153
-0.0583962
-0.1098556
-0.1565371
-0.07367687
-0.05516806
-0.0337322
-0.01898573
-1.629222
-1.666145
-2.947856
-3.624401
-2.932268
-2.869776
-3.599258
-2.907129
2.076771
2.002215
1.946476
1.893642
2.00516
1.87679
1.945643
2.049299
0.3437198
0.2748544
0.2606817
0.557059
0.7637082
0.685793
0.4400383
0.3589821
0.58325
-0.364395
-0.2934615
-0.5225971
-1.478966
-1.089461
-1.216911
-1.640986
-1.151108
0.1133004
0.04241305
0.08485385
0.2494933
0.2970803
0.3977985
0.2129238
0.1845546
0.3616417
-0.5142838
-0.4918538
-1.268115
-1.792517
-1.305378
-1.349765
-1.817419
-1.331733
0.02663602
-0.04433468
0.01140196
0.143027
0.161894
0.2925772
0.1264894
0.1113511
0.2762955
-0.5630659
-0.5542151
-1.361971
-1.851476
-1.370164
-1.379787
-1.855622
-1.375804
-0.02897054
-0.1003041
-0.03941848
0.08368996
0.09710772
0.2344298
0.0714696
0.06124465
0.2225857
-0.5863975
-0.5831226
-1.382601
-1.859529
-1.384309
-1.382372
-1.858144
-1.384496
-0.04304602
-0.1149781
-0.02700979
0.05254375
0.05434033
0.204825
0.05826256
0.07430813
0.2108613
-0.5440124
-0.5674899
-1.376549
-1.834111
-1.365327
-1.316617
-1.81336
-1.34623
0.1024535
0.03224109
0.1218719
0.1491073
0.1040475
0.3000948
0.2012869
0.2138076
0.3474019
-1.68659
-0.7132606
-1.473369
-0.4516002
-2.816967
-3.437148
-2.751072
-1.273253
-1.676228
-1.220716
-2.746608
-1.495259
-3.318379
-1.603487
-2.706833
-1.21172
-107.4764
-107.361
-2.533935
-107.5664
-107.3352
-106.6116
0.5774671
-107.4096
-107.5895
-107.683
-107.6668
-107.6971
-107.5754
-2.721308
-107.7176
-107.7846
-107.7421
-107.8643
-107.815
-107.8356
-107.895
-107.7447
-107.6231
-2.756074
-107.7466
-107.8579
-107.8495
-107.938
-107.8627
-107.8647
-107.9429
-107.7383
-107.6166
-2.759646
-107.7296
-107.8618
-107.8643
-107.942
-107.8565
-107.8479
-107.9368
-107.6662
-107.5443
-2.720495
-107.6252
-107.814
-107.8341
-107.8943
-107.7845
-107.7433
-107.8647
-107.5467
-107.3876
-2.538327
-108.1361
-5.614662
-107.626
-107.6856
-107.7051
-107.6766
-108.2765
-5.905507
-107.7556
-107.7662
-107.7248
-107.862
-107.5371
-106.8098
0.4195057
-107.5571
-107.7957
-107.8918
-107.8156
-107.9969
-107.9546
-108.0177
-107.996
-107.9525
-108.0161
-108.027
-108.0479
-108.0473
-108.0453
-108.0027
-108.0473
-108.0707
-108.0621
-108.0911
-108.0756
-108.0777
-108.096
-108.0395
-107.9968
-108.031
-108.0751
-108.0774
-108.0955
-108.0699
-108.0614
-108.0904
-107.9672
-107.9246
-107.9255
-108.0274
-108.0475
-108.0478
-107.9976
-107.9558
-108.018
-107.8557
-107.8138
-108.4541
-6.121739
-107.8362
-107.897
-107.8565
-107.8857
-108.484
-6.160667
-107.9061
-107.8376
-107.8293
-107.9337
-107.584
-106.8568
0.3952449
-107.5862
-107.8425
-107.9386
-107.8447
-108.0695
-108.0611
-108.0905
-108.0432
-107.9995
-108.0453
-108.0744
-108.0954
-108.0765
-108.1185
-108.11
-108.1205
-108.1184
-108.1097
-108.1206
-108.1234
-108.1255
-108.1256
-108.1129
-108.1044
-108.1043
-108.123
-108.1253
-108.1252
-108.1179
-108.1093
-108.12
-108.0404
-108.0319
-107.9986
-108.0753
-108.0955
-108.0775
-108.0454
-108.0036
-108.0476
-107.9286
-107.92
-108.5271
-6.23041
-107.884
-107.9448
-107.8862
-107.9337
-108.5322
-6.244049
-107.9359
-107.8425
-107.8446
-107.9386
-107.579
-106.8518
0.3958927
-107.5706
-107.8375
-107.9337
-107.8292
-108.0744
-108.0765
-108.0954
-108.0382
-107.9946
-108.0298
-108.0694
-108.0904
-108.061
-108.1234
-108.1256
-108.1255
-108.1134
-108.1047
-108.1049
-108.1184
-108.1205
-108.1099
-108.1178
-108.12
-108.1093
-108.1179
-108.1203
-108.1094
-108.1128
-108.1043
-108.1043
-108.0454
-108.0476
-108.0035
-108.0702
-108.0904
-108.0617
-108.0403
-107.9985
-108.0318
-107.9336
-107.9359
-108.5321
-6.267916
-107.8789
-107.9397
-107.8703
-107.9285
-108.527
-6.270078
-107.9198
-107.7955
-107.8155
-107.8916
-107.5075
-106.7803
0.4359086
-107.4663
-107.7659
-107.8618
-107.7244
-108.0268
-108.0471
-108.0477
-107.9657
-107.9223
-107.9234
-107.9966
-108.0175
-107.9542
-108.0755
-108.0959
-108.0775
-108.0401
-108.0316
-107.9975
-108.045
-108.047
-108.0024
-108.0697
-108.0902
-108.0612
-108.0444
-108.0468
-108.0016
-108.0392
-108.0307
-107.9964
-107.9974
-108.0178
-107.9555
-107.9967
-108.0168
-107.9539
-107.9669
-107.9252
-107.9242
-107.8853
-107.9058
-108.4836
-6.246511
-107.8057
-107.8665
-107.7635
-107.8552
-108.4536
-6.222356
-107.8132
-107.5915
-107.6663
-107.6851
-107.2674
-106.5567
0.7278709
-107.3035
-2.742839
-107.5042
-107.5945
-107.5013
-3.027044
-107.8172
-107.8945
-107.8378
-107.6949
-107.6527
-107.6861
-3.190746
-107.7252
-107.7457
-107.7162
-3.213962
-107.8649
-107.9424
-107.8669
-107.768
-107.7596
-107.759
-3.244842
-107.7728
-107.7747
-107.7638
-3.248503
-107.8587
-107.9363
-107.8501
-107.7717
-107.7743
-107.7627
-3.252563
-107.7664
-107.7577
-107.7573
-3.251767
-107.7866
-107.8642
-107.7454
-107.7237
-107.7438
-107.7144
-3.231195
-107.6943
-107.6533
-107.685
-3.212203
-107.6782
-107.7549
-108.2774
-6.050974
-107.5357
-107.5963
-107.5251
-3.086676
-107.5712
-108.1534
-5.798929
-107.5221
-3.02615
)
;
        qro             uniform 0;
    }
    air_to_floor
    {
        type            greyDiffusiveRadiationViewFactor;
        value           nonuniform List<scalar> 
900
(
47.00497
50.50414
53.67376
56.52312
59.06203
61.30176
63.25555
64.9376
66.38908
67.60359
68.57193
69.31816
69.88303
70.2645
70.448
70.42027
70.19048
69.76343
69.12916
68.28364
67.20598
65.88079
64.30501
62.47737
60.3791
57.99815
55.32314
52.34398
49.05175
45.43777
50.60541
54.04232
57.14498
59.92454
62.39277
64.56279
66.44934
68.06785
69.45994
70.6211
71.54506
72.25635
72.79307
73.15431
73.32598
73.29766
73.07825
72.66965
72.0608
71.24659
70.20892
68.93266
67.41124
65.64098
63.60416
61.28751
58.67814
55.76416
52.53474
48.97935
53.8811
57.25147
60.28336
62.98977
65.38433
67.48202
69.29905
70.85198
72.18303
73.28916
74.16735
74.84247
75.34995
75.69048
75.85053
75.82196
75.61232
75.22257
74.64
73.85827
72.86183
71.63587
70.17041
68.4594
66.48625
64.23654
61.69586
58.85054
55.68791
52.1956
56.84087
60.14229
63.10145
65.73315
68.05281
70.07716
71.8239
73.31107
74.58021
75.631
76.46301
77.10136
77.57935
77.89911
78.04762
78.01889
77.81877
77.44785
76.89172
76.14291
75.18797
74.01249
72.6035
70.95201
69.04327
66.86152
64.39086
61.6159
58.52222
55.09564
59.49385
62.7258
65.61214
68.16937
70.41462
72.36629
74.04348
75.46593
76.67379
77.67005
78.45642
79.05829
79.50715
79.80653
79.94418
79.91485
79.72401
79.37138
78.84122
78.12494
77.21084
76.0849
74.7315
73.13858
71.29349
69.17911
66.77811
64.07347
61.04904
57.68894
61.85035
65.01418
67.8294
70.31414
72.48715
74.36837
75.97835
77.33816
78.48676
79.43039
80.17261
80.73904
81.15972
81.43948
81.56696
81.53666
81.3548
81.01955
80.51433
79.82946
78.9546
77.87623
76.57624
75.03979
73.25616
71.20706
68.87372
66.23762
63.28099
59.98627
63.92212
67.02069
69.76806
72.18382
74.2882
76.10265
77.64902
78.94949
80.04232
80.93599
81.63663
82.16917
82.56319
82.82436
82.94234
82.91085
82.73745
82.41851
81.93669
81.28132
80.44341
79.40972
78.15981
76.67656
74.95095
72.96361
70.69458
68.12381
65.23202
62.00014
65.72157
68.759
71.44297
73.79468
75.83556
77.5882
79.07568
80.32121
81.36268
82.20999
82.87211
83.37322
83.74263
83.98679
84.09565
84.06295
83.89732
83.59336
83.13296
82.50463
81.70065
80.70795
79.50399
78.06971
76.39762
74.46733
72.25772
69.74767
66.91669
63.74394
67.27741
70.25739
72.882
75.17338
77.15436
78.84883
80.28116
81.47537
82.46915
83.2732
83.89942
84.37125
84.71778
84.94642
85.04654
85.01273
84.85427
84.56434
84.12392
83.52084
82.74855
81.79388
80.63271
79.24424
77.62251
75.74627
73.59307
71.14044
68.36642
65.24927
68.58675
71.51525
74.08654
76.32403
78.25165
79.89433
81.27734
82.42555
83.3766
84.14212
84.73614
85.18184
85.50792
85.72288
85.81495
85.78022
85.62793
85.35061
84.92795
84.34726
83.60323
82.68247
81.55972
80.21229
78.6355
76.80719
74.70414
72.30279
69.58007
66.51293
69.64385
72.53245
75.05986
77.25266
79.13587
80.73532
82.07721
83.18705
84.10221
84.83538
85.40204
85.82561
86.1345
86.33773
86.42296
86.38742
86.24005
85.97333
85.56563
85.00386
84.28342
83.39082
82.29975
80.98623
79.44657
77.658
75.59647
73.23752
70.55707
67.53107
103.8162
73.32448
75.81971
77.97705
79.82474
81.38947
82.69805
83.7768
84.66282
85.37014
85.91416
86.31982
86.61493
86.80841
86.88818
86.85214
86.70887
86.45062
86.05496
85.50821
84.80632
83.93646
82.87092
81.58537
80.07579
78.31906
76.29064
73.96533
71.31808
68.3237
71.08253
73.92189
76.38803
78.51691
80.3363
81.87346
83.15577
84.21005
85.07316
85.76016
86.28644
86.6781
86.96278
87.1485
87.22384
87.18726
87.04705
86.79542
86.40953
85.87472
85.18748
84.33575
83.29176
82.03671
80.55516
78.82415
76.82228
74.52396
71.90243
68.92639
104.7694
74.30995
76.76635
78.8758
80.67534
82.19327
83.45724
84.49453
85.34181
86.01487
86.52887
86.91059
87.18787
87.36806
87.44024
87.40332
87.26522
87.0182
86.63924
86.11289
85.43609
84.59786
83.57676
82.41665
45.59669
43.88705
41.90399
39.62431
37.0149
33.99034
104.9701
74.5098
76.95689
79.05577
80.845
82.35305
83.60768
84.6361
85.47489
86.14053
86.64818
87.02461
87.29801
87.47537
87.54594
87.50881
87.37179
87.12715
86.75175
86.22969
85.55837
84.72709
83.71495
82.57189
45.76499
44.06504
42.09189
39.82313
37.23144
34.28526
104.9685
74.50894
76.95623
79.0552
80.84448
82.35253
83.60714
84.63554
85.47431
86.13992
86.64755
87.02396
87.29732
87.47464
87.54517
87.50799
87.37091
87.12622
86.75076
86.22861
85.55724
84.72593
83.7139
82.57158
45.76491
44.065
42.09186
39.82322
37.23287
34.29457
104.7556
74.30644
76.76438
78.87402
80.67362
82.19161
83.45564
84.49295
85.34021
86.01319
86.52699
86.90877
87.18593
87.36598
87.43802
87.40095
87.26269
87.01554
86.63642
86.10982
85.43289
84.59469
83.57511
82.42462
45.60916
43.89987
41.9169
39.63802
37.03735
34.08891
104.3477
73.90767
76.3841
78.51377
80.33322
81.87042
83.15277
84.20706
85.07018
85.75692
86.27966
86.67473
86.95949
87.145
87.22012
87.1833
87.04284
86.79101
86.40485
85.86967
85.18222
84.33117
83.29732
82.13086
45.2985
43.5714
41.56973
39.27161
36.65165
33.68433
70.45693
73.32057
75.8146
77.97195
79.81962
81.38433
82.69289
83.7716
84.65749
85.36115
132.4849
86.31068
86.60929
86.8027
86.88222
86.84587
86.70227
86.44375
86.04769
85.50048
84.7983
83.92906
82.87362
81.67664
44.81627
43.06348
41.03531
38.71015
36.06321
33.06976
69.63665
72.52318
75.05039
77.24305
79.12612
80.72544
82.06717
83.17685
84.09186
84.82462
85.38765
85.81454
86.12352
86.32652
86.41149
86.37565
86.22801
85.961
85.55289
84.99066
84.26989
83.37719
82.28757
80.98368
79.44863
77.66056
75.59925
73.24056
70.56041
67.53486
68.57272
71.50084
74.0718
76.30897
78.23627
79.87863
81.26132
82.40922
83.35999
84.12523
84.71887
85.16439
85.49021
85.70489
85.79666
85.76162
85.60906
85.3315
84.90852
84.32751
83.58321
82.6623
81.53958
80.19299
78.61661
76.78859
74.68588
72.28484
69.56198
66.49599
67.25831
70.23777
72.86186
75.15271
77.13317
78.82712
80.25892
81.45261
82.44591
83.24953
83.87533
84.34677
84.69296
84.92132
85.02114
84.98703
84.82833
84.53815
84.09748
83.49416
82.72174
81.76705
80.60596
79.21774
77.59636
75.72052
73.56771
71.11429
68.33193
65.22435
65.69637
68.73305
71.41626
73.7672
75.8073
77.55916
79.04587
80.29064
81.33142
82.17812
82.83965
83.34021
83.70918
83.95302
84.06155
84.02858
83.86277
83.55862
83.0981
82.4697
81.66575
80.67317
79.46946
78.03559
76.36405
74.43438
72.2248
69.70581
100.1622
63.70306
63.88913
66.98664
69.73293
72.1476
74.25089
76.06424
77.60952
78.90892
80.00078
80.89359
81.59342
82.12522
82.51868
82.77947
82.89712
82.86538
82.69185
82.37283
81.89105
81.23581
80.39814
79.36483
78.11542
76.63286
74.90808
72.92168
70.65355
68.0825
65.18287
61.96107
61.80959
64.97205
67.78588
70.26922
72.44082
74.32063
75.92922
77.28767
78.43505
79.37759
80.11879
80.68432
81.10431
81.38363
81.51078
81.48026
81.29831
80.9631
80.45807
79.77354
78.89915
77.82138
76.52214
74.98664
73.20412
71.15623
68.82419
66.18935
63.23353
59.94093
59.44545
62.67573
65.56039
68.11592
70.35947
72.30944
73.98496
75.40577
76.61219
77.60714
78.39231
78.99312
79.44119
79.74006
79.87739
79.84788
79.65699
79.30451
78.77469
78.05894
77.14551
76.02041
74.66799
73.07627
71.23254
69.11964
66.72021
64.01721
60.99445
57.63613
56.78504
60.08452
63.04172
65.67145
67.98914
70.01153
71.75633
73.24163
74.50912
75.55842
76.38905
77.02621
77.50332
77.82253
77.97072
77.94182
77.74171
77.37104
76.81539
76.06727
75.11322
73.93879
72.53098
70.88092
68.97378
66.79375
64.32491
61.55185
58.46011
55.03552
53.81815
57.18632
60.21599
62.92018
65.31252
67.40801
69.22289
70.77375
72.10296
73.20744
74.08411
74.75793
75.26445
75.60438
75.76411
75.7354
75.52582
75.13641
74.55445
73.77355
72.77818
71.55346
70.08936
68.38
66.40866
64.16089
61.62226
58.77905
55.6186
52.12851
50.53569
53.97015
57.07037
59.84748
62.31328
64.48089
66.3651
67.98138
69.37148
70.53083
71.45317
72.16306
72.69877
73.05937
73.23071
73.20226
72.98297
72.57479
71.96664
71.1534
70.11695
68.84209
67.32222
65.55378
63.51896
61.20445
58.59733
55.68567
52.45863
48.90566
46.92888
50.42535
53.5924
56.43907
58.97539
61.2125
63.16379
64.84347
66.29284
67.5054
68.47204
69.21682
69.78063
70.16144
70.34458
70.31673
70.08711
69.66055
69.02709
68.18264
67.10632
65.78268
64.2086
62.38291
60.28682
57.90818
55.2356
52.25895
48.96929
45.35792
)
;
        qro             uniform 0;
    }
}


// ************************************************************************* //
