/*--------------------------------*- C++ -*----------------------------------*\
| =========                 |                                                 |
| \\      /  F ield         | OpenFOAM: The Open Source CFD Toolbox           |
|  \\    /   O peration     | Version:  2506                                  |
|   \\  /    A nd           | Website:  www.openfoam.com                      |
|    \\/     M anipulation  |                                                 |
\*---------------------------------------------------------------------------*/
FoamFile
{
    version     2.0;
    format      ascii;
    arch        "LSB;label=32;scalar=64";
    class       volVectorField;
    location    "1500/air";
    object      U;
}
// * * * * * * * * * * * * * * * * * * * * * * * * * * * * * * * * * * * * * //

dimensions      [0 1 -1 0 0 0 0];

internalField   nonuniform List<vector> 
33752
(
(-0.04567022 -0.05499158 -0.03415417)
(-0.02645369 -0.06814209 -0.03077432)
(-0.01651928 -0.07721533 -0.02816215)
(-0.01030507 -0.0832255 -0.02645501)
(-0.005681329 -0.08708144 -0.0253094)
(-0.002004532 -0.08950969 -0.02452206)
(0.001104455 -0.0910069 -0.0239527)
(0.003804643 -0.09185497 -0.02352934)
(0.00623105 -0.0922601 -0.02321296)
(0.008431426 -0.09237272 -0.02297397)
(0.0104335 -0.09231466 -0.02279191)
(0.01226048 -0.09218257 -0.02265497)
(0.01393434 -0.09205364 -0.02255748)
(0.01548045 -0.09198752 -0.02249841)
(0.01692991 -0.09202627 -0.0224793)
(0.01831993 -0.09219333 -0.02250337)
(0.01969254 -0.09249263 -0.02257419)
(0.02109285 -0.09290823 -0.02269561)
(0.02256685 -0.09340421 -0.02287147)
(0.02416034 -0.09392514 -0.02310647)
(0.02591884 -0.09439569 -0.02340688)
(0.02789029 -0.09471919 -0.02378257)
(0.03013046 -0.09477241 -0.02424893)
(0.03271398 -0.09439532 -0.02483108)
(0.03575439 -0.09336993 -0.02556979)
(0.03944584 -0.09138134 -0.02653291)
(0.04413452 -0.08794077 -0.02783066)
(0.05046961 -0.0822805 -0.02966236)
(0.06055767 -0.07336947 -0.0324056)
(0.08042666 -0.05999787 -0.03598542)
(-0.05920278 -0.03665952 -0.03086078)
(-0.03504803 -0.04503091 -0.02618288)
(-0.02187696 -0.05210322 -0.02310359)
(-0.01359723 -0.05728928 -0.02126755)
(-0.007637618 -0.06088409 -0.02010248)
(-0.003088351 -0.0632724 -0.01934043)
(0.0005977815 -0.06477148 -0.01881418)
(0.0036787 -0.06560568 -0.01843175)
(0.006335452 -0.06597954 -0.01814934)
(0.008665948 -0.06604028 -0.01793888)
(0.01071754 -0.0659097 -0.01777995)
(0.01252871 -0.06568864 -0.01766056)
(0.01413407 -0.06545953 -0.01757526)
(0.01557142 -0.0652872 -0.01752268)
(0.01688542 -0.06521744 -0.01750427)
(0.01812798 -0.06527554 -0.01752253)
(0.01935693 -0.06546491 -0.01758056)
(0.02063323 -0.06576668 -0.0176813)
(0.02201875 -0.06614019 -0.01782798)
(0.02357457 -0.06652392 -0.01802445)
(0.02536209 -0.06683674 -0.01827667)
(0.02744708 -0.06697758 -0.01859429)
(0.0299094 -0.06682343 -0.01899374)
(0.03285992 -0.06622286 -0.01950254)
(0.03647236 -0.06498475 -0.02016838)
(0.04104432 -0.06285926 -0.02107471)
(0.04709652 -0.05951331 -0.02236498)
(0.0555415 -0.05452659 -0.02430696)
(0.06890443 -0.04753073 -0.02750747)
(0.09370474 -0.03901948 -0.0323947)
(-0.06856551 -0.0273591 -0.02837734)
(-0.04236256 -0.03254524 -0.02323777)
(-0.02713055 -0.03758635 -0.01977917)
(-0.01718084 -0.04163312 -0.01773808)
(-0.009958666 -0.04460968 -0.0164681)
(-0.004486391 -0.04665101 -0.01565548)
(-0.0001415989 -0.04793693 -0.01510789)
(0.003413965 -0.04862719 -0.01471017)
(0.006380435 -0.04887917 -0.01441341)
(0.00890346 -0.04882192 -0.01419007)
(0.01104486 -0.04857224 -0.01401809)
(0.01285878 -0.04823243 -0.01388534)
(0.01439506 -0.04788992 -0.01378649)
(0.01570801 -0.04761529 -0.01372114)
(0.01686083 -0.04745968 -0.01369114)
(0.01792629 -0.04745176 -0.01369953)
(0.01898412 -0.04759593 -0.01374904)
(0.02011764 -0.04787172 -0.01384206)
(0.02140981 -0.04823465 -0.01398054)
(0.02294163 -0.04861859 -0.01416723)
(0.02479292 -0.0489381 -0.01440701)
(0.02704857 -0.04909116 -0.0147096)
(0.02981064 -0.04895968 -0.01509275)
(0.03322047 -0.04840884 -0.01558829)
(0.03749578 -0.04728382 -0.0162523)
(0.04299863 -0.04540791 -0.0171846)
(0.05033211 -0.04258862 -0.01855619)
(0.06048162 -0.03866262 -0.02068249)
(0.07596756 -0.03365645 -0.0242484)
(0.1029502 -0.02835936 -0.02958936)
(-0.07485357 -0.0217175 -0.02674841)
(-0.04779563 -0.0248713 -0.02147795)
(-0.03140636 -0.02826817 -0.01781133)
(-0.02031138 -0.03118806 -0.01563183)
(-0.01209188 -0.03341852 -0.01427114)
(-0.005808889 -0.03495434 -0.01339845)
(-0.0008378331 -0.03587347 -0.01281071)
(0.003201611 -0.03627856 -0.01237694)
(0.006496961 -0.03628782 -0.01204562)
(0.009233187 -0.03601112 -0.01178984)
(0.01147801 -0.03555776 -0.01158704)
(0.01329715 -0.03503079 -0.01142522)
(0.01475488 -0.03452233 -0.01130063)
(0.0159231 -0.03411002 -0.01121423)
(0.01688692 -0.03385138 -0.01116972)
(0.01774406 -0.03377963 -0.01117083)
(0.01860142 -0.03390068 -0.01122057)
(0.01956905 -0.03419238 -0.01132024)
(0.02075509 -0.03460614 -0.01147024)
(0.02226199 -0.03507022 -0.01167105)
(0.02418783 -0.03549487 -0.01192579)
(0.02663262 -0.03577704 -0.01224296)
(0.02971327 -0.0358053 -0.01264096)
(0.03358729 -0.0354625 -0.01315409)
(0.03849238 -0.03462981 -0.01384428)
(0.04481188 -0.03319313 -0.0148204)
(0.05315916 -0.03106212 -0.01626632)
(0.06448407 -0.02822144 -0.01851541)
(0.08118027 -0.02485513 -0.02227526)
(0.1090974 -0.02165597 -0.02772942)
(-0.07900811 -0.01764395 -0.02564219)
(-0.05165552 -0.01949263 -0.0203509)
(-0.03463158 -0.02165389 -0.01657688)
(-0.02277541 -0.02359776 -0.01430681)
(-0.01380414 -0.02509449 -0.01287026)
(-0.006849962 -0.02607534 -0.01193326)
(-0.001319702 -0.02655748 -0.01128973)
(0.003175216 -0.02659864 -0.01079977)
(0.006791513 -0.02629101 -0.01041267)
(0.009739238 -0.02572667 -0.01010223)
(0.01208339 -0.02500931 -0.009845954)
(0.01389584 -0.02424338 -0.009634024)
(0.01525223 -0.02352798 -0.009465219)
(0.01624245 -0.02294973 -0.009344172)
(0.01697573 -0.02257484 -0.009277259)
(0.01757943 -0.02244235 -0.009270458)
(0.01819224 -0.02256034 -0.009326968)
(0.01895622 -0.02290473 -0.009446978)
(0.02000772 -0.02342142 -0.009627956)
(0.0214724 -0.02403164 -0.009866835)
(0.0234643 -0.02463883 -0.01016296)
(0.02609367 -0.02513731 -0.01052222)
(0.02948251 -0.02541983 -0.01096169)
(0.03379091 -0.02538403 -0.0115167)
(0.03925545 -0.02493893 -0.01225189)
(0.04625185 -0.02401573 -0.01328064)
(0.05536567 -0.02258687 -0.01479029)
(0.06747571 -0.02070816 -0.01711723)
(0.08483939 -0.01859675 -0.02097083)
(0.113073 -0.01677376 -0.02642275)
(-0.0817453 -0.01449998 -0.02486964)
(-0.05432666 -0.01550752 -0.0196037)
(-0.03694082 -0.01677068 -0.01577785)
(-0.02456697 -0.01792625 -0.01344864)
(-0.01502633 -0.01877214 -0.0119488)
(-0.007521791 -0.01921989 -0.01094657)
(-0.001499946 -0.01925605 -0.01023445)
(0.003408871 -0.01890716 -0.009669297)
(0.007328761 -0.01825032 -0.009205183)
(0.01047639 -0.0173644 -0.008815437)
(0.01290694 -0.01634963 -0.008479647)
(0.01469185 -0.01531481 -0.008191466)
(0.01591478 -0.01436773 -0.007955297)
(0.01668253 -0.01360714 -0.007781075)
(0.01713167 -0.01310958 -0.007680711)
(0.01742329 -0.01292149 -0.007663354)
(0.01773426 -0.01305351 -0.007733381)
(0.01824349 -0.01347912 -0.007888914)
(0.01912019 -0.01413759 -0.008123048)
(0.02051384 -0.01494063 -0.008426584)
(0.02255294 -0.01578272 -0.008792642)
(0.02535125 -0.01655183 -0.009221961)
(0.02902735 -0.01714218 -0.009728389)
(0.03373149 -0.01746013 -0.01034608)
(0.0396849 -0.01743397 -0.01114055)
(0.04723839 -0.01702285 -0.01222634)
(0.05693523 -0.01623316 -0.01379045)
(0.06958039 -0.01514628 -0.01616608)
(0.08732184 -0.01396185 -0.02005827)
(0.1156102 -0.0130416 -0.02545852)
(-0.0835258 -0.01194921 -0.02431911)
(-0.05612 -0.01240791 -0.01909384)
(-0.03850749 -0.01302928 -0.01524528)
(-0.02576106 -0.01357482 -0.01287601)
(-0.01577407 -0.01388046 -0.011322)
(-0.007810265 -0.013858 -0.01025398)
(-0.001350599 -0.01348141 -0.009461317)
(0.003931466 -0.01275779 -0.008802831)
(0.008137648 -0.01175616 -0.008239282)
(0.01147168 -0.0105465 -0.007743374)
(0.01397233 -0.009229537 -0.007297541)
(0.01570527 -0.00792086 -0.006901932)
(0.01675743 -0.006739807 -0.006568758)
(0.01725204 -0.005797368 -0.006317786)
(0.01735495 -0.00518109 -0.006168777)
(0.0172671 -0.004945033 -0.006136844)
(0.0172093 -0.005102771 -0.006227841)
(0.01740484 -0.005625077 -0.006437279)
(0.01805945 -0.006443506 -0.006751391)
(0.0193487 -0.007459656 -0.007151402)
(0.0214122 -0.008557404 -0.007620388)
(0.02436154 -0.009616801 -0.008150547)
(0.02830319 -0.01052888 -0.008750232)
(0.03336878 -0.01120369 -0.009450986)
(0.03975345 -0.01158043 -0.01031756)
(0.04777521 -0.01163441 -0.01146458)
(0.05793103 -0.01138712 -0.01307708)
(0.07096112 -0.01092361 -0.0154846)
(0.08893233 -0.01041111 -0.0193872)
(0.1171772 -0.01008881 -0.02471897)
(-0.08464407 -0.009803324 -0.02391842)
(-0.05726853 -0.009903853 -0.01873522)
(-0.03949396 -0.01007594 -0.01487741)
(-0.02645897 -0.01016848 -0.01247825)
(-0.01610525 -0.01005179 -0.01087489)
(-0.007746896 -0.009645928 -0.009738939)
(-0.0008872795 -0.008919428 -0.008853395)
(0.004733458 -0.007872627 -0.008083107)
(0.009212485 -0.006565629 -0.007396561)
(0.01272073 -0.005065579 -0.006763983)
(0.01527461 -0.00347391 -0.006172538)
(0.01692935 -0.001903731 -0.005626216)
(0.0177761 -0.0004782405 -0.005146993)
(0.01794792 0.0006606373 -0.004775934)
(0.0176408 0.001405773 -0.004549418)
(0.01710017 0.001689719 -0.004492744)
(0.01660216 0.001494139 -0.004615639)
(0.01642317 0.000852813 -0.004909133)
(0.0168124 -0.000153315 -0.005347497)
(0.01796898 -0.001407311 -0.005895165)
(0.02003716 -0.002770576 -0.00651494)
(0.0231185 -0.004106122 -0.007182818)
(0.02730786 -0.005315752 -0.007905272)
(0.03270812 -0.006311731 -0.008710779)
(0.03948189 -0.007040064 -0.009663275)
(0.04791002 -0.00748344 -0.01087735)
(0.05844524 -0.007668933 -0.01253687)
(0.07177289 -0.007675293 -0.01496852)
(0.08990145 -0.007638046 -0.0188697)
(0.1180757 -0.007708766 -0.0241315)
(-0.08530039 -0.007955835 -0.02362143)
(-0.05794871 -0.007830197 -0.0184763)
(-0.04004189 -0.007701876 -0.01461445)
(-0.02676756 -0.007478323 -0.01219001)
(-0.01609929 -0.007057915 -0.01053894)
(-0.007392613 -0.006369988 -0.009331934)
(-0.0001595657 -0.005380246 -0.008340898)
(0.005771332 -0.004092774 -0.007441543)
(0.01051162 -0.002554715 -0.006606815)
(0.01418766 -0.0008231352 -0.005800426)
(0.01679401 0.001004935 -0.005011853)
(0.01835528 0.002783948 -0.00426759)
(0.01895467 0.004363034 -0.003612376)
(0.01875241 0.00561925 -0.003100514)
(0.01797778 0.006437667 -0.00278335)
(0.01692652 0.006744091 -0.002698495)
(0.01593047 0.006517552 -0.002859894)
(0.01532243 0.005794049 -0.003253821)
(0.01539712 0.004661765 -0.003841215)
(0.01638312 0.003246726 -0.004567451)
(0.01843379 0.001685534 -0.005378297)
(0.0216468 0.0001061012 -0.006233132)
(0.02607858 -0.001356708 -0.007119228)
(0.03179344 -0.00260845 -0.008054745)
(0.03892455 -0.003607977 -0.00910832)
(0.0477162 -0.004345366 -0.01039704)
(0.05857932 -0.004847926 -0.01210538)
(0.07215426 -0.005185575 -0.01455952)
(0.09040665 -0.005466493 -0.01845611)
(0.1185147 -0.005782863 -0.02365343)
(-0.08563874 -0.006341734 -0.02339818)
(-0.05829778 -0.006087125 -0.01828548)
(-0.04027338 -0.005777476 -0.01442087)
(-0.02679157 -0.005358804 -0.01197281)
(-0.01584643 -0.004750747 -0.01027449)
(-0.006828162 -0.003892023 -0.008993454)
(0.0007564247 -0.002744346 -0.007886597)
(0.006971138 -0.001325064 -0.006842946)
(0.01196907 0.0003464852 -0.005832346)
(0.01580678 0.00219598 -0.004821832)
(0.01844592 0.004119123 -0.003816375)
(0.0199008 0.005996141 -0.002851455)
(0.02024331 0.007678931 -0.001989789)
(0.01963913 0.009019775 -0.001311827)
(0.01835692 0.009891617 -0.0008850557)
(0.01674682 0.01021261 -0.00076446)
(0.0152059 0.009958731 -0.0009723071)
(0.01412932 0.009168523 -0.001486495)
(0.01386421 0.007938937 -0.00225238)
(0.01466837 0.006404379 -0.003190898)
(0.01669856 0.004715256 -0.004220368)
(0.02002655 0.003017268 -0.00528249)
(0.02467844 0.001427795 -0.006352341)
(0.03069448 1.86518e-05 -0.007442814)
(0.03816083 -0.001152515 -0.008615366)
(0.0472825 -0.002073809 -0.009987106)
(0.05843728 -0.002775318 -0.01174769)
(0.07222803 -0.003317291 -0.01422555)
(0.09058947 -0.003786132 -0.01811905)
(0.118648 -0.004234715 -0.02326016)
(-0.08576594 -0.004916825 -0.02322841)
(-0.05842488 -0.004608058 -0.01814318)
(-0.04029375 -0.00421543 -0.0142754)
(-0.02663019 -0.003708638 -0.01180465)
(-0.01544149 -0.003024768 -0.01005987)
(-0.00614631 -0.002110899 -0.00870442)
(0.001764562 -0.0009250437 -0.007475679)
(0.008241199 0.0005014351 -0.006276927)
(0.01347668 0.002157449 -0.00508369)
(0.01746652 0.003986781 -0.003863856)
(0.02014283 0.005896623 -0.002624552)
(0.02148944 0.007761608 -0.001413117)
(0.02156955 0.009438079 -0.0003158619)
(0.02055508 0.01076647 0.0005373856)
(0.01875129 0.01162363 0.001081628)
(0.01656875 0.01193491 0.001242157)
(0.01446611 0.01167665 0.0009869805)
(0.01290446 0.01088499 0.0003514799)
(0.01229094 0.009643273 -0.0006146836)
(0.01291002 0.008093336 -0.001795523)
(0.01491393 0.006392786 -0.003072245)
(0.01835298 0.00467958 -0.004360067)
(0.02322151 0.003067922 -0.005623131)
(0.02951489 0.001637415 -0.006872181)
(0.03728547 0.0004265866 -0.00816899)
(0.04670694 -0.0005601433 -0.009631075)
(0.05812134 -0.001342562 -0.01144695)
(0.07210373 -0.001972612 -0.01395065)
(0.09056589 -0.00251807 -0.01784426)
(0.1185945 -0.003007369 -0.02293904)
(-0.08575757 -0.003643439 -0.02309483)
(-0.05841794 -0.003342169 -0.01803699)
(-0.04019332 -0.002948052 -0.01416606)
(-0.02637476 -0.002446866 -0.01167397)
(-0.01497823 -0.001790524 -0.00988576)
(-0.005444993 -0.0009361686 -0.008459301)
(0.00275886 0.0001633523 -0.007110693)
(0.009460058 0.001454193 -0.005765389)
(0.0149134 0.002957818 -0.004399205)
(0.01904353 0.004617935 -0.002971926)
(0.021754 0.006352382 -0.001492993)
(0.02300398 0.008053292 -2.611439e-05)
(0.02282467 0.009566811 0.001288793)
(0.0214188 0.01076835 0.002353303)
(0.01912685 0.01154779 0.003034804)
(0.01640271 0.01182828 0.003241084)
(0.01377113 0.01158544 0.002935105)
(0.01175506 0.01085369 0.002146565)
(0.0108005 0.009718759 0.0009653028)
(0.0112329 0.008298662 -0.000449306)
(0.01321619 0.006731176 -0.001983092)
(0.01675871 0.005156895 -0.003505238)
(0.02182208 0.003674891 -0.004962705)
(0.02836507 0.002352162 -0.00636613)
(0.03640661 0.001223618 -0.007779909)
(0.04608838 0.0002954116 -0.009327416)
(0.05772878 -0.0004553169 -0.01119871)
(0.07187793 -0.001068316 -0.0137292)
(0.09043262 -0.001595383 -0.01762638)
(0.1184491 -0.002049352 -0.02268539)
(-0.08570956 -0.002493944 -0.02301017)
(-0.05835206 -0.002245233 -0.01796251)
(-0.04004794 -0.001914698 -0.01408701)
(-0.02610548 -0.001496723 -0.01157629)
(-0.01454379 -0.0009575953 -0.009750443)
(-0.00481755 -0.000266224 -0.008261974)
(0.003627187 0.0006242173 -0.006809902)
(0.01051045 0.00165733 -0.005341381)
(0.01614503 0.00286111 -0.00382306)
(0.02039339 0.004191436 -0.002207927)
(0.02313768 0.005584068 -0.0005080834)
(0.02429083 0.006943813 0.001167204)
(0.02389713 0.008159355 0.002717221)
(0.02216292 0.009130027 0.003973217)
(0.01944942 0.009759398 0.004781965)
(0.01625797 0.009984054 0.005033365)
(0.01316856 0.009783239 0.00468146)
(0.01076127 0.009183683 0.003759809)
(0.009527587 0.008257127 0.002381463)
(0.009798646 0.007108841 0.000721386)
(0.01175546 0.005838707 -0.001035395)
(0.01538927 0.004562954 -0.002773173)
(0.02061563 0.003362252 -0.004409659)
(0.02736452 0.002287788 -0.005951726)
(0.03562789 0.001366488 -0.007468642)
(0.04552376 0.0006042647 -0.009088395)
(0.05734784 -1.417591e-05 -0.0110078)
(0.07163399 -0.0005208194 -0.01356329)
(0.09026965 -0.0009514629 -0.01746642)
(0.1182895 -0.001308378 -0.0225013)
(-0.0856214 -0.001435346 -0.02293987)
(-0.05827367 -0.001272178 -0.0179126)
(-0.03991557 -0.001053333 -0.0140352)
(-0.0258868 -0.0007777925 -0.01151071)
(-0.01421034 -0.0004246502 -0.009656841)
(-0.004342058 2.41486e-05 -0.008119954)
(0.004264522 0.000598137 -0.006595456)
(0.01128127 0.001268197 -0.005036762)
(0.01704623 0.002046835 -0.003403707)
(0.02138162 0.002907954 -0.001644466)
(0.02414924 0.003812449 0.0002215352)
(0.02523166 0.004688865 0.002076253)
(0.02468478 0.005480187 0.003801915)
(0.02270863 0.006112431 0.005207529)
(0.01968502 0.006522425 0.006118806)
(0.01614868 0.006667357 0.006408384)
(0.01272209 0.006533053 0.006021183)
(0.01002685 0.006137061 0.004994645)
(0.008588693 0.005526419 0.003460016)
(0.008752672 0.004770183 0.001615632)
(0.01068168 0.00394166 -0.0003179519)
(0.01438417 0.0031071 -0.002231004)
(0.01972771 0.002321319 -0.00400824)
(0.02662317 0.001617572 -0.00566089)
(0.03504554 0.001012688 -0.007263824)
(0.04509503 0.0005117431 -0.008939048)
(0.05705117 0.0001044769 -0.01089327)
(0.07143729 -0.0002277502 -0.01346792)
(0.09013911 -0.0005067081 -0.01737715)
(0.1181866 -0.000729857 -0.0223999)
(-0.08557043 -0.0004328092 -0.02290921)
(-0.05822542 -0.0003752147 -0.01788879)
(-0.03983803 -0.0002985603 -0.01400983)
(-0.02576447 -0.00020297 -0.01147786)
(-0.0140281 -8.115366e-05 -0.009608949)
(-0.004085286 7.341506e-05 -0.008045569)
(0.004593702 0.0002672788 -0.006482155)
(0.01169037 0.0004993225 -0.004877353)
(0.01752189 0.0007680694 -0.003181907)
(0.02190393 0.001066669 -0.001345346)
(0.02467762 0.001381447 0.0005983392)
(0.02572569 0.001686577 0.002568007)
(0.02509945 0.001963159 0.004397001)
(0.02299606 0.002184832 0.005889714)
(0.0198085 0.002327793 0.006861802)
(0.01608995 0.002376392 0.007174645)
(0.01248497 0.002324984 0.00676735)
(0.009637949 0.002179753 0.005679914)
(0.008091658 0.001958422 0.004054493)
(0.00820065 0.001685501 0.002107061)
(0.01011358 0.001389779 7.166959e-05)
(0.0138538 0.00109178 -0.001940352)
(0.01925913 0.0008122628 -0.003795884)
(0.02623175 0.0005620659 -0.0055077)
(0.03473739 0.0003476571 -0.007153581)
(0.04486716 0.0001703867 -0.008857345)
(0.05689299 2.719739e-05 -0.01082935)
(0.07133271 -8.794883e-05 -0.01341479)
(0.09007127 -0.000182205 -0.01732911)
(0.1181326 -0.0002544283 -0.02235007)
(-0.08556456 0.000550071 -0.02290549)
(-0.05822186 0.0004977834 -0.01788625)
(-0.0398365 0.000421578 -0.01400812)
(-0.02576402 0.0003232178 -0.01147669)
(-0.0140282 0.0001967524 -0.009608251)
(-0.004085561 3.646262e-05 -0.00804535)
(0.004593426 -0.0001641741 -0.006482283)
(0.01169016 -0.0004038878 -0.00487748)
(0.01752188 -0.0006805575 -0.003181951)
(0.02190415 -0.0009874339 -0.001345399)
(0.02467792 -0.001311131 0.0005983239)
(0.02572613 -0.001626611 0.00256779)
(0.0251003 -0.001914372 0.004396603)
(0.02299758 -0.002147542 0.005889038)
(0.0198108 -0.002301958 0.006860991)
(0.01609305 -0.002361731 0.007173748)
(0.01248871 -0.00232111 0.006766543)
(0.009642132 -0.002186314 0.005679229)
(0.008096012 -0.001975187 0.004053969)
(0.008204929 -0.001712443 0.002106666)
(0.01011759 -0.001427115 7.134983e-05)
(0.01385739 -0.001139925 -0.001940715)
(0.01926233 -0.0008717763 -0.003796444)
(0.02623495 -0.000633357 -0.005508639)
(0.03474137 -0.0004298025 -0.007154961)
(0.04487262 -0.0002601757 -0.008859015)
(0.05690053 -0.000120378 -0.0108314)
(0.07134282 -3.270448e-06 -0.01341774)
(0.09008504 9.926899e-05 -0.01733322)
(0.1181515 0.000187273 -0.02235656)
(-0.08560121 0.001551306 -0.02292782)
(-0.05826256 0.001394112 -0.01790528)
(-0.03991085 0.00117599 -0.01403024)
(-0.02588548 0.0008979182 -0.0115075)
(-0.01421072 0.0005402289 -0.00965479)
(-0.00434304 8.566403e-05 -0.008118977)
(0.004263655 -0.0004956822 -0.006595592)
(0.01128052 -0.001173591 -0.00503695)
(0.0170462 -0.001960312 -0.003403805)
(0.02138233 -0.002829701 -0.001644464)
(0.02415016 -0.003742716 0.0002216239)
(0.02523282 -0.004629712 0.002075803)
(0.02468719 -0.005432196 0.00380065)
(0.02271298 -0.00607571 0.005205603)
(0.01969168 -0.006496837 0.00611638)
(0.01615757 -0.006652645 0.006405881)
(0.01273286 -0.006528895 0.0060189)
(0.01003886 -0.006143146 0.004992804)
(0.008601262 -0.005542523 0.003458623)
(0.008765097 -0.004796217 0.00161461)
(0.01069339 -0.003977696 -0.0003188154)
(0.01439471 -0.00315343 -0.002232075)
(0.01973697 -0.002378538 -0.004010065)
(0.02663221 -0.001686624 -0.005664553)
(0.03505703 -0.001093397 -0.007269684)
(0.04511123 -0.0006002367 -0.008946146)
(0.05707351 -0.0001963477 -0.01090156)
(0.07146754 0.0001373522 -0.01347864)
(0.09018156 0.0004244702 -0.01739146)
(0.11825 0.0006654045 -0.02242381)
(-0.08566281 0.002612731 -0.02298276)
(-0.05833277 0.002366903 -0.01794982)
(-0.0400403 0.00203686 -0.01407903)
(-0.0261034 0.001616511 -0.01157108)
(-0.01454454 0.001072819 -0.00974711)
(-0.004819286 0.0003753649 -0.008259953)
(0.003625255 -0.0005230461 -0.006809451)
(0.01050932 -0.001564269 -0.005341245)
(0.01614526 -0.002776443 -0.003822791)
(0.02039528 -0.004114983 -0.002207456)
(0.02313963 -0.005515155 -0.0005059815)
(0.02429264 -0.006886056 0.001167394)
(0.02390112 -0.008112724 0.002715914)
(0.02217015 -0.009094194 0.003970669)
(0.01946024 -0.009734176 0.004778759)
(0.01627226 -0.009969274 0.005029985)
(0.01318573 -0.009778721 0.004678436)
(0.01078048 -0.0091892 0.003757349)
(0.009547846 -0.008272418 0.002379612)
(0.009818982 -0.007133646 0.0007200175)
(0.01177499 -0.005872745 -0.001036665)
(0.01540711 -0.004605977 -0.00277498)
(0.02063102 -0.003414125 -0.004413485)
(0.02737856 -0.002348651 -0.00596224)
(0.03564598 -0.001435967 -0.007490866)
(0.04555021 -0.0006796094 -0.009114872)
(0.05738392 -6.418901e-05 -0.01103678)
(0.07168281 0.0004426354 -0.01359513)
(0.090341 0.0008777989 -0.01750293)
(0.1184092 0.001245415 -0.02255213)
(-0.08573006 0.003759886 -0.02308103)
(-0.05839818 0.003461387 -0.01802276)
(-0.04018398 0.00306839 -0.01415541)
(-0.02637238 0.002565313 -0.01166655)
(-0.01497978 0.001904459 -0.009880659)
(-0.005448088 0.001043653 -0.008455884)
(0.002755418 -6.388473e-05 -0.007108974)
(0.009458346 -0.001364031 -0.005764469)
(0.01491394 -0.002876866 -0.004398246)
(0.01904755 -0.004546509 -0.002969694)
(0.02175756 -0.006290735 -0.001480105)
(0.02300607 -0.008000994 -2.287347e-05)
(0.02283046 -0.009523957 0.001288279)
(0.0214292 -0.01073509 0.002351063)
(0.01914193 -0.01152421 0.003031667)
(0.01642214 -0.01181444 0.00323779)
(0.01379424 -0.01158135 0.002932108)
(0.01178091 -0.01085922 0.002144166)
(0.01082805 -0.009733569 0.0009633916)
(0.01126115 -0.008322285 -0.000450856)
(0.01324421 -0.006762952 -0.001984639)
(0.01678568 -0.005195782 -0.003507444)
(0.02184729 -0.003719442 -0.004966951)
(0.02838973 -0.002400243 -0.006377043)
(0.03643621 -0.001273338 -0.007802487)
(0.04612728 -0.0003472324 -0.009354641)
(0.05777859 0.0004016908 -0.01122864)
(0.07194182 0.001013107 -0.01376186)
(0.09052051 0.001538192 -0.01766385)
(0.1185869 0.001986646 -0.02273705)
(-0.08571962 0.005024119 -0.02320388)
(-0.05839882 0.004721887 -0.01812399)
(-0.04028197 0.004332067 -0.01426108)
(-0.02662743 0.00382421 -0.01179419)
(-0.01544399 0.003136056 -0.01005241)
(-0.006151019 0.002215509 -0.00869905)
(0.001759573 0.001021078 -0.007472042)
(0.008237751 -0.0004149018 -0.006274741)
(0.01347603 -0.002081615 -0.005082144)
(0.01746888 -0.003921594 -0.003862464)
(0.02014695 -0.00584303 -0.002622144)
(0.02149532 -0.007715887 -0.001412438)
(0.0215793 -0.009400401 -0.0003165647)
(0.02056968 -0.01073728 0.0005356468)
(0.01877097 -0.01160324 0.001079267)
(0.01659327 -0.0119235 0.001239577)
(0.01449482 -0.01167432 0.000984634)
(0.01293657 -0.01089161 0.0003497195)
(0.01232553 -0.009658471 -0.0006163445)
(0.01294621 -0.008116496 -0.001797122)
(0.0149511 -0.006422922 -0.00307405)
(0.01839075 -0.004715325 -0.004362373)
(0.02326001 -0.003107362 -0.005626377)
(0.0295555 -0.001677714 -0.006877378)
(0.03733109 -0.0004660793 -0.008176718)
(0.04676064 0.0005205138 -0.009640612)
(0.05818483 0.001301694 -0.01145823)
(0.07217935 0.001929379 -0.0139642)
(0.090658 0.002469907 -0.01786171)
(0.1187101 0.002947992 -0.02296425)
(-0.08557992 0.006441379 -0.02336641)
(-0.05826552 0.006194096 -0.01826111)
(-0.04025894 0.005888436 -0.01440206)
(-0.02678847 0.005469479 -0.01195862)
(-0.01585005 0.004857405 -0.01026387)
(-0.0068348 0.003991818 -0.008985613)
(0.0007492622 0.002835241 -0.007880941)
(0.006966117 0.001405727 -0.006838929)
(0.01196679 -0.0002760601 -0.005829732)
(0.01580848 -0.00213683 -0.004819918)
(0.01845106 -0.004070389 -0.003814817)
(0.0199097 -0.005956057 -0.00285066)
(0.02025695 -0.007647018 -0.001989851)
(0.01965805 -0.008995957 -0.001312604)
(0.01838129 -0.009875941 -0.000886386)
(0.01677638 -0.0102052 -0.0007660009)
(0.01524013 -0.009959579 -0.0009738559)
(0.01416751 -0.009177449 -0.001487947)
(0.01390568 -0.007955531 -0.002253919)
(0.01471249 -0.006427899 -0.00319265)
(0.01674494 -0.004744591 -0.004222505)
(0.02007509 -0.003051079 -0.005285138)
(0.02472975 -0.001464439 -0.006355491)
(0.03074945 -5.702336e-05 -0.007446896)
(0.03822114 0.001113933 -0.008620486)
(0.04734988 0.002034669 -0.009993089)
(0.05851322 0.002734936 -0.01175465)
(0.07231411 0.003274738 -0.01423406)
(0.09068774 0.003739575 -0.01813006)
(0.1187625 0.004180626 -0.02327558)
(-0.08523049 0.008045787 -0.02358287)
(-0.05791063 0.007927892 -0.01844618)
(-0.04002485 0.007804448 -0.01459064)
(-0.02676412 0.007581314 -0.01217129)
(-0.01610414 0.007157236 -0.01052454)
(-0.007401346 0.006462487 -0.009320951)
(-0.0001691911 0.005463725 -0.008332922)
(0.005764122 0.004165839 -0.00743575)
(0.0105081 0.002617124 -0.006602618)
(0.01418863 0.0008755926 -0.00579766)
(0.01680014 -0.000962518 -0.005009938)
(0.01836689 -0.002750953 -0.004266394)
(0.0189719 -0.004338192 -0.003611805)
(0.01877557 -0.0056021 -0.003100515)
(0.01800681 -0.006428076 -0.002783777)
(0.01696114 -0.006741933 -0.002699251)
(0.01597019 -0.006522691 -0.002860887)
(0.01536672 -0.005806169 -0.003255089)
(0.01544546 -0.004680364 -0.003842849)
(0.01643525 -0.003271082 -0.004569566)
(0.0184893 -0.00171518 -0.00538099)
(0.02170595 -0.0001395283 -0.00623637)
(0.02614153 0.001320748 -0.007123027)
(0.03186091 0.002570985 -0.008059019)
(0.03899758 0.00356944 -0.009112983)
(0.04779592 0.004305787 -0.0104021)
(0.05866682 0.004807023 -0.01211106)
(0.07225057 0.005142956 -0.01456607)
(0.09051228 0.005421559 -0.01846357)
(0.1186323 0.005732064 -0.02366343)
(-0.08456346 0.009880583 -0.02387316)
(-0.05722478 0.009989089 -0.01869935)
(-0.03947424 0.01016669 -0.01484812)
(-0.02645508 0.01026029 -0.01245459)
(-0.01611117 0.01014041 -0.01085607)
(-0.007757631 0.009728018 -0.009724444)
(-0.0008992309 0.008992785 -0.008842669)
(0.004724192 0.007935828 -0.008075483)
(0.009207497 0.006618594 -0.007391076)
(0.01272152 0.005108435 -0.00676013)
(0.01528191 0.003507262 -0.006169858)
(0.01694319 0.001928892 -0.005624645)
(0.01779673 0.0004955737 -0.005146133)
(0.01797523 -0.0006506876 -0.004775617)
(0.01767459 -0.001402789 -0.004549574)
(0.01714001 -0.00169341 -0.004493328)
(0.01664762 -0.001504145 -0.004616673)
(0.01647378 -0.0008687237 -0.004910669)
(0.01686784 0.0001320607 -0.005349594)
(0.01802901 0.001381394 -0.005897888)
(0.02010187 0.002741086 -0.006518394)
(0.02318773 0.004073512 -0.007186806)
(0.02738161 0.005280597 -0.007909597)
(0.03278677 0.006274822 -0.008715352)
(0.03956615 0.007001722 -0.009668047)
(0.04800069 0.007443665 -0.01088243)
(0.05854329 0.007627517 -0.01254221)
(0.07187944 0.007631878 -0.01497376)
(0.09001472 0.007592169 -0.01886939)
(0.1181935 0.007660028 -0.02413475)
(-0.08343503 0.01201101 -0.02426788)
(-0.05607065 0.01247731 -0.01905237)
(-0.03848489 0.01310442 -0.01521066)
(-0.0257563 0.0136515 -0.01284716)
(-0.0157806 0.01395451 -0.01129868)
(-0.007822473 0.01392616 -0.01023565)
(-0.00136433 0.01354149 -0.009447781)
(0.003920688 0.01280855 -0.008793178)
(0.008131734 0.01179752 -0.008232607)
(0.01147243 0.01057874 -0.007738832)
(0.01398059 0.009253134 -0.007294625)
(0.0157214 0.00793663 -0.00690015)
(0.01678142 0.006748418 -0.006567862)
(0.01728361 0.005799535 -0.006317589)
(0.01739365 0.005177331 -0.00616921)
(0.01731249 0.004935844 -0.006137874)
(0.01726091 0.005088571 -0.006229489)
(0.01746227 0.005606336 -0.006439554)
(0.01812237 0.006420695 -0.006754306)
(0.01941686 0.00743328 -0.007154892)
(0.02148546 0.008528002 -0.007624384)
(0.02443985 0.009584816 -0.008154909)
(0.02838649 0.01049474 -0.008754895)
(0.03345723 0.01116781 -0.00945585)
(0.03984743 0.01154295 -0.01032269)
(0.04787522 0.01159529 -0.01146998)
(0.05803766 0.0113461 -0.01308286)
(0.07107495 0.01088026 -0.01549076)
(0.08905325 0.01036482 -0.01939328)
(0.1173075 0.01004216 -0.02472647)
(-0.08164517 0.01454396 -0.02481348)
(-0.05427187 0.01555799 -0.01955756)
(-0.03691497 0.01682647 -0.01573835)
(-0.02456066 0.01798377 -0.01341513)
(-0.01503255 0.01882766 -0.01192112)
(-0.007534422 0.01927042 -0.01092474)
(-0.001514303 0.01929964 -0.0102181)
(0.003397659 0.01894276 -0.009657817)
(0.007322954 0.01827799 -0.009197268)
(0.01047798 0.01738434 -0.008810356)
(0.01291695 0.01636238 -0.008476568)
(0.01471063 0.01532099 -0.008189912)
(0.01594228 0.01436801 -0.007954809)
(0.01671837 0.01360211 -0.00778145)
(0.01717537 0.01309981 -0.007681774)
(0.01747429 0.01290743 -0.00766507)
(0.01779209 0.01303565 -0.007735703)
(0.01830768 0.01345785 -0.007891844)
(0.01919041 0.01411333 -0.008126525)
(0.02058974 0.01491377 -0.008430566)
(0.02263433 0.01575364 -0.008797009)
(0.02543793 0.01652079 -0.009226673)
(0.02911924 0.01710942 -0.009733355)
(0.03382857 0.01742583 -0.01035134)
(0.03978736 0.01739817 -0.01114607)
(0.0473465 0.01698546 -0.01223223)
(0.05704938 0.01619398 -0.01379671)
(0.06970107 0.01510505 -0.01617291)
(0.08744988 0.01391849 -0.02006593)
(0.1157491 0.01299734 -0.02546794)
(-0.07890005 0.01766856 -0.02558302)
(-0.05159563 0.01952168 -0.02030142)
(-0.03460208 0.02168712 -0.01653386)
(-0.02276658 0.02363254 -0.01426957)
(-0.01380865 0.02512784 -0.01283927)
(-0.006861341 0.02610488 -0.01190849)
(-0.001332868 0.0265816 -0.01127126)
(0.003165343 0.02661668 -0.01078666)
(0.006787479 0.02630303 -0.01040386)
(0.009743169 0.02573294 -0.01009662)
(0.01209637 0.02501023 -0.009842852)
(0.01391826 0.0242395 -0.009632669)
(0.01528397 0.02351978 -0.009465218)
(0.01628315 0.02293774 -0.009345126)
(0.01702481 0.02255947 -0.009279015)
(0.01763635 0.02242405 -0.009272856)
(0.01825641 0.02253944 -0.009329972)
(0.01902719 0.02288158 -0.009450502)