/*--------------------------------*- C++ -*----------------------------------*\
| =========                 |                                                 |
| \\      /  F ield         | OpenFOAM: The Open Source CFD Toolbox           |
|  \\    /   O peration     | Version:  2506                                  |
|   \\  /    A nd           | Website:  www.openfoam.com                      |
|    \\/     M anipulation  |                                                 |
\*---------------------------------------------------------------------------*/
FoamFile
{
    version     2.0;
    format      ascii;
    arch        "LSB;label=32;scalar=64";
    class       volScalarField;
    location    "1500/floor";
    object      damage;
}
// * * * * * * * * * * * * * * * * * * * * * * * * * * * * * * * * * * * * * //

dimensions      [0 0 0 0 0 0 0];

internalField   nonuniform List<scalar> 
2700
(
0.008409077
0.008412296
0.00841559
0.008418571
0.008421244
0.008423615
0.008425698
0.008427525
0.008429109
0.008430459
0.008431547
0.008432383
0.008433014
0.008433448
0.008433673
0.00843368
0.008433474
0.008433057
0.008432422
0.008431561
0.008430456
0.008429093
0.008427467
0.008425575
0.008423398
0.008420926
0.008418146
0.008415049
0.00841167
0.008408477
0.008412257
0.00841546
0.008418728
0.008421672
0.008424292
0.008426604
0.008428626
0.008430377
0.008431886
0.008433156
0.008434181
0.008434978
0.008435583
0.008435998
0.008436213
0.008436219
0.008436022
0.008435622
0.008435009
0.008434177
0.008433108
0.008431789
0.008430211
0.00842837
0.008426249
0.008423834
0.008421112
0.008418074
0.008414752
0.008411606
0.008415614
0.008418769
0.00842198
0.008424858
0.008427407
0.008429646
0.008431595
0.008433273
0.008434713
0.008435919
0.00843689
0.008437649
0.008438223
0.008438617
0.008438821
0.008438827
0.00843864
0.008438259
0.008437673
0.008436874
0.008435848
0.008434579
0.008433059
0.008431278
0.008429221
0.008426874
0.008424222
0.008421254
0.008417999
0.008414909
0.008418683
0.008421782
0.008424925
0.008427729
0.008430202
0.008432366
0.008434242
0.008435851
0.008437227
0.008438375
0.008439297
0.008440017
0.008440562
0.008440936
0.008441129
0.008441135
0.008440958
0.008440597
0.008440039
0.008439274
0.008438291
0.008437074
0.00843561
0.008433891
0.0084319
0.008429622
0.008427042
0.008424146
0.008420961
0.00841793
0.008421433
0.008424475
0.008427547
0.008430277
0.008432674
0.008434764
0.008436568
0.00843811
0.008439424
0.008440516
0.008441392
0.008442076
0.008442592
0.008442946
0.008443129
0.008443135
0.008442969
0.008442627
0.008442096
0.008441366
0.008440424
0.008439257
0.00843785
0.008436191
0.008434265
0.008432056
0.008429547
0.008426723
0.008423608
0.008420636
0.008423874
0.008426859
0.008429861
0.008432518
0.008434842
0.00843686
0.008438596
0.008440074
0.008441328
0.008442367
0.008443199
0.008443847
0.008444336
0.008444672
0.008444846
0.008444854
0.008444698
0.008444375
0.00844387
0.008443172
0.008442271
0.008441152
0.008439799
0.008438197
0.008436334
0.008434191
0.00843175
0.008428996
0.00842595
0.008423037
0.008426019
0.008428949
0.008431884
0.008434472
0.008436726
0.008438676
0.008440347
0.008441766
0.008442963
0.008443953
0.008444744
0.008445359
0.008445823
0.008446142
0.008446308
0.008446317
0.008446171
0.008445866
0.008445386
0.008444719
0.008443855
0.008442782
0.008441479
0.008439931
0.008438126
0.008436045
0.00843367
0.008430982
0.008428002
0.008425145
0.008427882
0.00843076
0.008433633
0.008436156
0.008438345
0.008440232
0.008441844
0.008443207
0.008444353
0.008445297
0.008446051
0.008446636
0.008447077
0.008447381
0.00844754
0.00844755
0.008447414
0.008447126
0.008446668
0.00844603
0.008445201
0.008444169
0.008442912
0.008441413
0.008439662
0.008437639
0.008435324
0.008432698
0.008429779
0.008426974
0.008429488
0.008432318
0.008435133
0.008437595
0.008439724
0.008441553
0.008443109
0.00844442
0.00844552
0.008446422
0.008447141
0.008447699
0.00844812
0.008448411
0.008448564
0.008448576
0.008448449
0.008448176
0.00844774
0.008447127
0.008446331
0.008445336
0.008444121
0.008442668
0.008440967
0.008438997
0.008436738
0.008434169
0.008431307
0.008428552
0.008430845
0.008433627
0.008436388
0.008438796
0.008440872
0.008442649
0.008444156
0.008445422
0.008446479
0.008447345
0.008448034
0.008448568
0.008448971
0.008449251
0.008449399
0.008449412
0.008449294
0.008449036
0.008448619
0.008448029
0.00844726
0.008446299
0.008445121
0.008443707
0.008442049
0.008440127
0.008437918
0.0084354
0.008432589
0.008429878
0.008432096
0.008434701
0.008437405
0.008439767
0.008441798
0.008443531
0.008444998
0.008446226
0.008447248
0.008448083
0.008448747
0.008449261
0.008449649
0.00844992
0.008450065
0.008450081
0.00844997
0.008449724
0.008449323
0.008448753
0.008448007
0.008447073
0.008445922
0.008444524
0.008442899
0.008441015
0.008438846
0.008436371
0.008433605
0.008430947
0.008434933
0.008435705
0.00843821
0.008440526
0.00844252
0.008444219
0.008445652
0.008446849
0.008447844
0.008448654
0.008449297
0.008449796
0.008450173
0.008450437
0.008450579
0.008450597
0.008450492
0.008450257
0.008449869
0.008449315
0.008448587
0.008447669
0.008446493
0.008444865
0.008443212
0.008441353
0.008439217
0.00843678
0.008434093
0.008431697
0.008437026
0.008436707
0.008438845
0.008441093
0.008443056
0.008444727
0.008446134
0.008447307
0.00844828
0.008449072
0.008449699
0.008450185
0.008450554
0.008450813
0.008450954
0.008450973
0.008450874
0.008450647
0.008450269
0.008449727
0.00844901
0.008448059
0.008446397
0.008441921
0.008439646
0.00843775
0.008435638
0.008433271
0.008431063
0.008431245
0.008458208
0.008440033
0.008439489
0.008441483
0.008443411
0.008445062
0.008446451
0.008447608
0.008448566
0.008449345
0.008449961
0.008450439
0.008450803
0.008451058
0.008451198
0.008451219
0.008451123
0.008450902
0.008450532
0.008449997
0.008449273
0.008448078
0.008443567
0.008420553
0.008413622
0.008411348
0.008409245
0.008407102
0.00840725
0.008422797
0.00846157
0.008440749
0.008439734
0.008441674
0.008443588
0.008445229
0.008446609
0.008447758
0.008448708
0.008449479
0.00845009
0.008450564
0.008450924
0.008451178
0.008451317
0.008451339
0.008451245
0.008451027
0.008450661
0.00845013
0.008449408
0.008448169
0.00844316
0.008417286
0.008409718
0.00840739
0.008405279
0.008402941
0.008400762
0.00840097
0.008461829
0.008440793
0.008439737
0.008441673
0.008443587
0.008445228
0.008446608
0.008447756
0.008448706
0.008449478
0.008450089
0.008450562
0.008450923
0.008451176
0.008451315
0.008451337
0.008451243
0.008451025
0.008450658
0.008450128
0.008449405
0.008448162
0.008443103
0.008416973
0.00840935
0.008407016
0.008404902
0.00840252
0.008399889
0.008397542
0.008461348
0.008440536
0.008439532
0.008441482
0.008443407
0.008445058
0.008446447
0.008447604
0.008448562
0.008449341
0.008449964
0.008450435
0.008450798
0.008451053
0.008451192
0.008451213
0.008451117
0.008450895
0.008450525
0.00844999
0.008449262
0.008448013
0.008442948
0.008416811
0.008409179
0.008406837
0.008404713
0.008402316
0.00839963
0.008397039
0.008457764
0.008439612
0.008439087
0.008441102
0.008443049
0.008444719
0.008446126
0.0084473
0.008448273
0.00844908
0.008449875
0.008450193
0.008450546
0.008450804
0.008450944
0.008450964
0.008450864
0.008450637
0.008450259
0.008449715
0.008448978
0.008447722
0.008442693
0.008416798
0.008409207
0.008406854
0.008404712
0.008402296
0.008399588
0.008396966
0.008436229
0.008436064
0.008438241
0.008440518
0.008442509
0.008444207
0.00844564
0.008446837
0.008447839
0.008448826
0.008451675
0.008449966
0.008450167
0.008450423
0.008450565
0.008450582
0.008450477
0.008450241
0.008449853
0.008449297
0.008448549
0.008447326
0.008442783
0.008419737
0.008412768
0.008410453
0.00840829
0.008405848
0.008403113
0.008400467
0.008432214
0.008434721
0.008437392
0.008439749
0.008441779
0.008443512
0.008444978
0.008446205
0.008447229
0.008448078
0.00844891
0.008449255
0.008449628
0.008449897
0.008450042
0.008450057
0.008449946
0.008449699
0.008449298
0.008448728
0.008447978
0.008446989
0.008445284
0.008440763
0.008438438
0.008436487
0.008434315
0.008431842
0.008429086
0.0084264
0.008430832
0.008433604
0.008436363
0.00843877
0.008440845
0.008442621
0.008444127
0.008445392
0.008446449
0.008447315
0.00844801
0.008448536
0.008448938
0.008449217
0.008449365
0.008449378
0.00844926
0.008449001
0.008448584
0.008447994
0.008447225
0.008446258
0.008445028
0.008443342
0.008441625
0.008439698
0.008437493
0.008435016
0.008432397
0.0084295
0.008429456
0.008432285
0.008435099
0.00843756
0.008439688
0.008441516
0.008443071
0.008444381
0.00844548
0.008446381
0.0084471
0.008447656
0.008448076
0.008448367
0.00844852
0.008448531
0.008448404
0.008448131
0.008447695
0.008447082
0.008446286
0.008445291
0.008444073
0.008442603
0.008440899
0.008438933
0.008436717
0.008434569
0.00843394
0.008428999
0.00842784
0.008430717
0.008433589
0.00843611
0.008438299
0.008440185
0.008441795
0.008443156
0.008444301
0.008445244
0.008445997
0.008446581
0.008447021
0.008447324
0.008447483
0.008447493
0.008447356
0.008447068
0.008446611
0.008445972
0.008445144
0.008444112
0.008442856
0.008441358
0.008439609
0.008437602
0.008435508
0.008435342
0.008447973
0.008429857
0.008425966
0.008428894
0.008431828
0.008434414
0.008436667
0.008438615
0.008440285
0.008441701
0.008442898
0.008443886
0.008444675
0.008445289
0.008445752
0.00844607
0.008446236
0.008446244
0.008446098
0.008445793
0.008445313
0.008444647
0.008443784
0.008442712
0.00844141
0.008439864
0.00843806
0.008435985
0.008433653
0.008431386
0.00843064
0.008425597
0.008423811
0.008426793
0.008429794
0.008432449
0.008434771
0.008436786
0.00843852
0.008439996
0.008441248
0.008442286
0.008443116
0.008443763
0.00844425
0.008444585
0.008444759
0.008444766
0.00844461
0.008444287
0.008443783
0.008443086
0.008442186
0.008441069
0.008439717
0.008438117
0.008436256
0.008434115
0.008431681
0.008428969
0.008426116
0.00842302
0.008421359
0.008424398
0.008427468
0.008430195
0.00843259
0.008434677
0.008436479
0.008438019
0.008439331
0.008440421
0.008441295
0.008441977
0.008442491
0.008442844
0.008443027
0.008443033
0.008442867
0.008442526
0.008441995
0.008441266
0.008440326
0.00843916
0.008437755
0.008436098
0.008434174
0.008431968
0.008429462
0.008426643
0.008423543
0.008420562
0.008418597
0.008421694
0.008424834
0.008427636
0.008430107
0.008432268
0.008434141
0.008435747
0.008437121
0.008438266
0.008439187
0.008439905
0.008440448
0.008440821
0.008441013
0.008441019
0.008440843
0.008440482
0.008439924
0.008439161
0.008438179
0.008436964
0.008435503
0.008433786
0.008431798
0.008429523
0.008426945
0.008424052
0.008420871
0.008417842
0.008415518
0.008418671
0.008421879
0.008424755
0.0084273
0.008429536
0.008431482
0.008433157
0.008434595
0.008435799
0.008436768
0.008437524
0.008438097
0.00843849
0.008438693
0.008438698
0.008438511
0.008438131
0.008437546
0.008436749
0.008435724
0.008434458
0.008432939
0.008431161
0.008429108
0.008426764
0.008424115
0.00842115
0.008417898
0.008414811
0.008412153
0.008415355
0.008418616
0.008421559
0.008424174
0.008426485
0.008428503
0.008430251
0.008431757
0.008433029
0.008434048
0.008434842
0.008435445
0.008435859
0.008436073
0.008436079
0.008435882
0.008435482
0.008434871
0.00843404
0.008432973
0.008431656
0.008430081
0.008428243
0.008426125
0.008423713
0.008420995
0.008417961
0.008414642
0.008411499
0.008408964
0.008412192
0.008415464
0.008418453
0.008421115
0.008423491
0.008425569
0.008427394
0.008428971
0.008430336
0.008431409
0.008432238
0.008432866
0.008433298
0.008433523
0.008433529
0.008433323
0.008432907
0.008432273
0.008431413
0.008430311
0.008428951
0.008427328
0.008425437
0.008423264
0.008420796
0.008418019
0.008414926
0.008411552
0.008408363
0.002484797
0.002497422
0.00250999
0.002521327
0.002531488
0.002540494
0.002548395
0.002555317
0.002561311
0.002566414
0.002570526
0.002573685
0.002576076
0.002577719
0.002578569
0.002578587
0.002577796
0.002576206
0.002573787
0.002570512
0.00256631
0.002561128
0.002554946
0.002547752
0.002539482
0.002530089
0.002519526
0.00250776
0.002494875
0.002482348
0.002497289
0.00250983
0.002522275
0.002533453
0.002543398
0.002552172
0.002559837
0.00256647
0.002572186
0.002576993
0.002580866
0.002583881
0.002586169
0.002587739
0.002588549
0.002588565
0.002587809
0.002586283
0.002583953
0.002580789
0.002576728
0.002571716
0.002565723
0.002558731
0.002550676
0.002541506
0.002531172
0.002519634
0.00250697
0.002494628
0.002510097
0.002522444
0.002534659
0.00254558
0.002555249
0.002563743
0.002571132
0.00257749
0.00258295
0.002587518
0.002591193
0.002594059
0.002596232
0.002597723
0.00259849
0.002598506
0.002597788
0.002596336
0.002594107
0.002591071
0.002587171
0.002582352
0.002576575
0.002569813
0.002562004
0.002553093
0.002543025
0.002531753
0.002519346
0.002507224
0.002521763
0.002533888
0.002545839
0.002556478
0.002565858
0.002574066
0.002581178
0.002587275
0.00259249
0.002596839
0.002600331
0.002603053
0.002605114
0.002606526
0.002607252
0.002607268
0.00260659
0.002605213
0.002603088
0.002600182
0.002596444
0.00259182
0.002586262
0.002579731
0.002572173
0.002563526
0.00255373
0.002542733
0.002530593
0.002518701
0.002532218
0.002544115
0.002555794
0.002566148
0.00257524
0.002583166
0.002590007
0.002595851
0.002600829
0.002604967
0.002608283
0.002610866
0.002612817
0.002614154
0.002614842
0.002614861
0.002614222
0.002612918
0.002610896
0.002608118
0.002604539
0.002600107
0.002594762
0.00258846
0.002581148
0.002572762
0.002563236
0.002552512
0.00254064
0.00252898
0.002541498
0.00255317
0.002564583
0.002574658
0.002583471
0.002591123
0.002597705
0.002603306
0.002608057
0.002611994
0.002615143
0.002617592
0.00261944
0.002620708
0.002621362
0.002621383
0.002620783
0.00261955
0.002617627
0.002614973
0.002611547
0.002607296
0.002602157
0.002596073
0.002588997
0.002580862
0.002571598
0.002561139
0.002549529
0.002538098
0.002549649
0.002561108
0.002572265
0.002582076
0.002590623
0.002598018
0.002604355
0.002609727
0.002614266
0.002618015
0.002621008
0.002623332
0.002625085
0.002626289
0.002626913
0.002626937
0.002626376
0.00262521
0.00262338
0.002620842
0.002617558
0.002613478
0.00260853
0.00260265
0.002595796
0.002587898
0.002578881
0.002568674
0.002557314
0.002546102
0.002556729
0.002567988
0.002578906
0.00258847
0.002596772
0.002603928
0.002610038
0.0026152
0.002619545
0.002623121
0.002625971
0.002628181
0.002629848
0.002630995
0.002631593
0.002631621
0.002631096
0.002629993
0.002628249
0.002625817
0.002622664
0.00261874
0.002613966
0.002608272
0.002601623
0.002593943
0.002585154
0.002575182
0.002564055
0.002553049
0.002562835
0.002573907
0.002584603
0.002593936
0.002602008
0.002608942
0.002614842
0.002619811
0.002623976
0.002627394
0.002630114
0.002632221
0.00263381
0.002634908
0.002635483
0.002635516
0.002635025
0.002633981
0.002632317
0.002629983
0.00262695
0.002623168
0.002618554
0.002613032
0.002606571
0.002599095
0.00259052
0.002580767
0.002569857
0.002559043
0.002568008
0.002578879
0.002589372
0.002598499
0.002606368
0.002613105
0.002618818
0.002623614
0.002627622
0.002630899
0.002633504
0.002635521
0.002637043
0.002638099
0.002638655
0.002638695
0.002638235
0.002637246
0.002635652
0.002633405
0.002630478
0.002626821
0.002622347
0.002616975
0.00261068
0.002603383
0.002594996
0.002585437
0.002574722
0.002564082
0.00257308
0.002582976
0.002593235
0.002602187
0.002609886
0.002616458
0.002622016
0.002626668
0.002630544
0.002633705
0.002636214
0.002638157
0.002639624
0.002640646
0.002641188
0.002641234
0.002640803
0.002639859
0.002638326
0.002636151
0.002633312
0.002629757
0.00262539
0.002620099
0.002613931
0.002606779
0.002598548
0.00258915
0.002578603
0.002568145
0.002590667
0.002587051
0.002596293
0.002605068
0.002612629
0.002619069
0.002624501
0.002629037
0.002632807
0.002635876
0.002638308
0.002640191
0.002641616
0.002642612
0.002643144
0.002643198
0.002642791
0.002641885
0.002640401
0.002638284
0.002635512
0.002632026
0.002627623
0.002621716
0.002615495
0.002608445
0.002600336
0.002591076
0.002580773
0.002571083
0.002589791
0.002590043
0.002598636
0.002607217
0.002614663
0.002620999
0.002626333
0.002630779
0.002634466
0.002637464
0.002639836
0.002641674
0.002643068
0.002644045
0.00264457
0.002644632
0.002644243
0.002643368
0.002641922
0.00263985
0.002637123
0.002633573
0.002627832
0.002612918
0.002604489
0.002597336
0.00258932
0.002580274
0.002571342
0.00256993
0.002677726
0.002601131
0.002600842
0.002608681
0.002616013
0.002622275
0.002627541
0.002631924
0.002635555
0.002638504
0.002640835
0.002642642
0.002644015
0.002644978
0.002645499
0.002645566
0.002645191
0.002644337
0.002642919
0.002640876
0.002638143
0.002633925
0.002619183
0.002531254
0.00249943
0.002490748
0.002482761
0.002474367
0.002473084
0.002534313
0.002688746
0.002603358
0.002601717
0.002609401
0.002616687
0.00262291
0.002628142
0.002632493
0.002636093
0.002639016
0.002641327
0.002643117
0.002644478
0.002645435
0.002645954
0.002646024
0.002645657
0.002644814
0.00264341
0.002641382
0.00263866
0.002634339
0.002618214
0.002521228
0.002487142
0.002478296
0.002470299
0.002461362
0.002452543
0.002451232
0.002689477
0.002603471
0.002601723
0.002609397
0.002616682
0.002622905
0.002628136
0.002632487
0.002636088
0.002639011
0.002641322
0.002643111
0.002644472
0.002645428
0.002645947
0.002646017
0.00264565
0.002644806
0.002643402
0.002641374
0.002638651
0.002634317
0.002618066
0.002520368
0.002486122
0.00247726
0.002469255
0.002460203
0.002450114
0.002440615
0.002687902
0.00260255
0.00260095
0.002608674
0.002615999
0.002622259
0.002627526
0.002631909
0.002635539
0.002638491
0.002640863
0.002642628
0.002643996
0.002644958
0.002645478
0.002645545
0.00264517
0.002644315
0.002642896
0.002640852
0.002638109
0.002633752
0.002617476
0.002519752
0.002485475
0.00247658
0.002468538
0.002459438
0.002449193
0.002439002
0.002676031
0.002599528
0.002599315
0.002607232
0.002614639
0.002620972
0.002626306
0.002630751
0.002634442
0.002637525
0.002640973
0.002641734
0.002643041
0.002644012
0.002644535
0.002644596
0.002644206
0.00264333
0.002641884
0.002639808
0.002637029
0.002632641
0.002616442
0.002519379
0.002485205
0.002476262
0.002468153
0.002458981
0.002448657
0.002438362
0.00258641
0.00258758
0.002596342
0.002605033
0.002612586
0.002619025
0.002624457
0.002628993
0.002632805
0.002636995
0.002657265
0.002641308
0.00264161
0.002642561
0.00264309
0.002643143
0.002642734
0.002641827
0.002640342
0.002638221
0.002635397
0.002631073
0.002616213
0.00252816
0.002496195
0.002487355
0.002479161
0.002469889
0.002459465
0.002449077
0.002572901
0.002582971
0.002593178
0.00260212
0.002609817
0.002616387
0.002621944
0.002626594
0.002630472
0.002633717
0.002637301
0.002638165
0.002639545
0.002640562
0.002641102
0.002641147
0.002640714
0.00263977
0.002638235
0.002636059
0.00263321
0.002629516
0.002623615
0.002608529
0.00259991
0.002592549
0.002584308
0.002574917
0.002564397
0.002553868
0.002567927
0.00257879
0.002589277
0.002598401
0.002606267
0.002613002
0.002618712
0.002623505
0.002627511
0.002630789
0.002633433
0.002635407
0.002636923
0.002637977
0.002638531
0.002638569
0.002638109
0.002637118
0.002635524
0.002633276
0.002630349
0.002626679
0.002622071
0.002615945
0.002609481
0.00260217
0.002593796
0.002584345
0.002574187
0.002563005
0.002562716
0.002573784
0.002584476
0.002593805
0.002601875
0.002608805
0.002614701
0.002619666
0.002623828
0.002627242
0.00262996
0.002632063
0.002633649
0.002634745
0.002635318
0.00263535
0.002634858
0.002633814
0.002632149
0.002629815
0.002626783
0.002623003
0.002618381
0.002612818
0.00260635
0.002598884
0.002590421
0.002581881
0.00257858
0.002560283
0.002556574
0.002567829
0.002578743
0.002588302
0.002596599
0.00260375
0.002609856
0.002615013
0.002619352
0.002622924
0.00262577
0.002627977
0.00262964
0.002630785
0.002631382
0.002631408
0.002630882
0.002629779
0.002628036
0.002625604
0.002622454
0.002618532
0.00261376
0.002608069
0.002601425
0.002593788
0.002585635
0.002583922
0.002642266
0.002562472
0.002549451
0.002560906
0.002572058
0.002581862
0.002590404
0.002597792
0.002604122
0.002609489
0.002614022
0.002617765
0.002620753
0.002623072
0.002624821
0.002626022
0.002626645
0.002626668
0.002626106
0.00262494
0.002623112
0.002620575
0.002617295
0.002613219
0.002608275
0.0026024
0.002595552
0.002587668
0.002578767
0.002569776
0.002566026
0.002547334
0.00254126
0.002552926
0.002564331
0.0025744
0.002583205
0.002590849
0.002597423
0.002603016
0.00260776
0.002611691
0.002614833
0.002617276
0.00261912
0.002620385
0.002621037
0.002621057
0.002620457
0.002619225
0.002617304
0.002614653
0.002611231
0.002606985
0.002601852
0.002595774
0.002588706
0.00258058
0.002571334
0.002560989
0.002549942
0.002537976
0.00253194
0.002543829
0.0025555
0.002565845
0.002574928
0.002582844
0.002589677
0.002595512
0.002600481
0.002604612
0.002607921
0.002610497
0.002612443
0.002613778
0.002614463
0.002614481
0.002613842
0.00261254
0.00261052
0.002607746
0.002604172
0.002599746
0.002594408
0.002588114
0.00258081
0.002572434
0.002562918
0.002552211
0.002540381
0.002528699
0.002521444
0.002533562
0.002545503
0.002556132
0.002565501
0.002573699
0.002580801
0.002586888
0.002592095
0.002596435
0.002599919
0.002602634
0.002604689
0.002606098
0.002606821
0.002606837
0.002606159
0.002604784
0.002602662
0.002599761
0.002596028
0.002591411
0.002585861
0.00257934
0.002571791
0.002563155
0.00255337
0.002542384
0.002530257
0.002518374
0.002509738
0.002522079
0.002534282
0.002545193
0.00255485
0.002563333
0.002570712
0.00257706
0.002582509
0.00258707
0.002590735
0.002593593
0.002595761
0.002597247
0.002598012
0.002598027
0.00259731
0.00259586
0.002593635
0.002590604
0.00258671
0.002581899
0.002576131
0.002569378
0.002561581
0.002552681
0.002542625
0.002531366
0.002518971
0.00250686
0.002496899
0.002509437
0.002521858
0.002533031
0.002542958
0.002551727
0.00255938
0.002566002
0.002571705
0.002576515
0.002580371
0.002583374
0.002585654
0.00258722
0.002588028
0.002588043
0.002587287
0.002585764
0.002583437
0.002580279
0.002576226
0.002571222
0.002565239
0.002558257
0.002550213
0.002541057
0.002530735
0.002519211
0.00250656
0.00249423
0.00248439
0.002497044
0.002509524
0.002520896
0.002531008
0.002540035
0.002547916
0.002554831
0.002560799
0.00256596
0.002570015
0.002573151
0.002575531
0.002577168
0.002578016
0.002578033
0.002577243
0.002575655
0.002573239
0.002569971
0.002565778
0.002560605
0.002554433
0.002547249
0.002538991
0.002529612
0.002519063
0.00250731
0.002494439
0.002481927
0.001552265
0.001601426
0.001648646
0.001691117
0.001729163
0.001762853
0.001792381
0.001818202
0.00184054
0.001859537
0.001874821
0.001886565
0.001895471
0.001901589
0.001904741
0.001904763
0.001901752
0.00189576
0.001886661
0.00187437
0.001858608
0.001839166
0.001815985
0.001789027
0.001758038
0.001722852
0.001683289
0.001639214
0.001590763
0.001541803
0.001601081
0.001649845
0.001696499
0.001738295
0.00177547
0.001808253
0.001836873
0.001861601
0.001882916
0.001900822
0.001915225
0.001926426
0.001934935
0.001940775
0.001943769
0.001943782
0.001940909
0.001935167
0.001926413
0.00191455
0.001899334
0.001880553
0.001858108
0.00183193
0.001801779
0.00176746
0.001728786
0.001685599
0.001638004
0.001589782
0.001649265
0.001697236
0.00174298
0.001783782
0.001819905
0.001851631
0.001879219
0.001902935
0.001923307
0.00194034
0.001954019
0.001964671
0.001972753
0.001978293
0.001981123
0.001981136
0.001978409
0.001972942
0.001964571
0.001953185
0.001938571
0.001920518
0.001898884
0.001873569
0.001844343
0.001810996
0.001773321
0.001731135
0.00168451
0.001637142
0.001692991
0.001740082
0.001784819
0.001824554
0.00185959
0.001890243
0.001916796
0.001939537
0.001958997
0.001975215
0.001988213
0.001998328
0.002005987
0.002011233
0.002013907
0.002013924
0.002011343
0.002006155
0.001998173
0.001987271
0.001973262
0.001955941
0.001935126
0.001910679
0.00188239
0.001850033
0.001813378
0.001772219
0.001726598
0.001680124
0.00173217
0.001778366
0.001822075
0.001860737
0.001894693
0.001924287
0.001949826
0.001971621
0.001990192
0.002005621
0.002017963
0.002027556
0.002034806
0.002039771
0.002042302
0.002042323
0.002039889
0.002034976
0.002027376
0.002016952
0.002003537
0.001986931
0.001966918
0.001943321
0.001915954
0.001884573
0.001848931
0.001808796
0.001764182
0.001718612
0.001766952
0.001812269
0.001854969
0.001892584
0.001925492
0.001954064
0.001978629
0.001999516
0.002017236
0.002031913
0.002043629
0.002052724
0.002059587
0.002064289
0.002066694
0.002066722
0.002064433
0.002059783
0.002052551
0.002042586
0.002029739
0.002013816
0.001994568
0.001971787
0.001945304
0.001914865
0.001880202
0.001841062
0.001797432
0.001752749
0.001797507
0.001841989
0.001883725
0.001920345
0.00195226
0.001979866
0.002003514
0.002023547
0.002040474
0.002054446
0.002065579
0.002074208
0.002080713
0.002085175
0.002087468
0.002087504
0.002085355
0.002080955
0.002074068
0.002064532
0.002052217
0.002036931
0.002018396
0.001996376
0.001970724
0.001941171
0.001907434
0.001869239
0.001826548
0.001782716
0.001824046
0.001867746
0.001908581
0.001944275
0.00197527
0.002001984
0.002024785
0.002044033
0.002060232
0.002073557
0.002084159
0.002092363
0.002098545
0.002102795
0.002104987
0.002105035
0.002103019
0.00209885
0.00209228
0.002083138
0.002071307
0.002056601
0.002038716
0.002017393
0.001992502
0.001963766
0.001930883
0.001893565
0.001851752
0.00180872
0.001846949
0.001889921
0.001929915
0.001964743
0.001994878
0.002020759
0.002042774
0.002061296
0.002076828
0.002089558
0.002099673
0.002107491
0.002113382
0.002117446
0.002119549
0.002119614
0.002117724
0.002113773
0.002107497
0.002098716
0.002087332
0.002073156
0.002055867
0.002035186
0.002011003
0.001983028
0.001950946
0.001914449
0.001873454
0.001831171
0.00186635
0.001908546
0.001947778
0.001981833
0.002011203
0.002036346
0.002057663
0.002075539
0.00209048
0.002102687
0.002112373
0.002119854
0.002125495
0.002129402
0.002131431
0.002131517
0.002129742
0.002125988
0.002119973
0.002111511
0.002100518
0.002086809
0.002070045
0.002049927
0.002026365
0.001999061
0.001967686
0.001931917
0.001891654
0.001850044
0.001886021
0.001923877
0.001962237
0.00199564
0.002024374
0.002048902
0.002069638
0.002086978
0.002101426
0.0021132
0.002122528
0.002129732
0.002135169
0.00213895
0.002140922
0.002141031
0.002139356
0.002135771
0.002129977
0.002121781
0.002111111
0.002097781
0.002081429
0.002061685
0.002038612
0.002011857
0.001981063
0.001945896
0.00190625
0.001865273
0.001997589
0.001939646
0.001973664
0.002006421
0.002034642
0.002058676
0.002078944
0.002095853
0.002109906
0.002121336
0.002130376
0.002137362
0.002142642
0.002146323
0.002148256
0.002148394
0.002146804
0.002143357
0.002137741
0.002129756
0.002119335
0.002106282
0.002090011
0.002069056
0.002046001
0.002019646
0.001989312
0.001954641
0.001915706
0.001876617
0.001936924
0.001947995
0.001982229
0.002014456
0.002042263
0.002065908
0.00208581
0.002102383
0.002116128
0.002127293
0.002136111
0.002142929
0.002148093
0.002151701
0.002153609
0.002153771
0.00215225
0.002148912
0.002143437
0.002135614
0.002125371
0.002112296
0.002093179
0.002048902
0.002018966
0.001992438
0.001962456
0.001928392
0.001892664
0.001875467
0.00230828
0.001979946
0.001989446
0.002019876
0.002047319
0.002070691
0.002090337
0.002106678
0.002120212
0.002131196
0.002139862
0.002146563
0.002151647
0.002155206
0.002157097
0.002157279
0.002155808
0.002152546
0.00214717
0.002139458
0.002129263
0.002114783
0.002072369
0.001748911
0.001592044
0.001560112
0.001530254
0.00149777
0.001482497
0.001716161
0.002339038
0.001986163
0.00199252
0.002022561
0.002049844
0.002073075
0.002092591
0.002108811
0.002122233
0.002133121
0.002141708
0.002148347
0.002153391
0.002156925
0.00215881
0.002159002
0.002157556
0.002154335
0.00214901
0.002141355
0.002131214
0.002116564
0.002071138
0.001724174
0.001560224
0.001527898
0.001498079
0.001464431
0.001429135
0.00141234
0.002340679
0.001986387
0.001992523
0.002022544
0.002049826
0.002073057
0.002092573
0.002108792
0.002122214
0.002133101
0.002141691
0.002148326
0.002153368
0.002156902
0.002158785
0.002158977
0.00215753
0.002154307
0.002148982
0.002141325
0.002131183
0.002116508
0.002070827
0.001722292
0.001557957
0.001525595
0.00149576
0.001461883
0.001423762
0.001385426
0.002335868
0.001983136
0.001989645
0.002019838
0.002047267
0.002070637
0.002090284
0.002106623
0.002120157
0.002131151
0.002139973
0.002146514
0.002151582
0.002155137
0.002157026
0.002157205
0.00215573
0.002152467
0.002147089
0.002139373
0.002129159
0.002114399
0.002068623
0.00171999
0.001555541
0.001523054
0.001493084
0.001459043
0.00142054
0.001380608
0.00230192
0.001973943
0.001983732
0.002014448
0.002042174
0.002065814
0.002085714
0.002102286
0.002116043
0.002127534
0.0021414
0.002143165
0.002147996
0.002151586
0.002153488
0.002153646
0.002152121
0.00214878
0.002143301
0.00213547
0.002125122
0.002110222
0.002064523
0.001717272
0.001552992
0.001520301
0.001490077
0.001455768
0.001416979
0.001376716
0.001923516
0.001938774
0.001973645
0.002006285
0.002034492
0.002058523
0.002078788
0.002095698
0.002109915
0.002126563
0.002266871
0.002142583
0.002142636
0.002146145
0.002148068
0.0021482
0.002146606
0.002143155
0.002137533
0.002129539
0.002119012
0.002104135
0.002061284
0.001737365
0.001579969
0.001547451
0.001516889
0.001482203
0.001443036
0.001402418
0.001883446
0.001923649
0.001962013
0.001995399
0.002024127
0.002048649
0.002069379
0.002086714
0.002101169
0.002113265
0.002127638
0.002129787
0.00213489
0.002138651
0.002140616
0.002140721
0.002139041
0.002135452
0.002129654
0.002121453
0.002110764
0.002097154
0.002077442
0.002032524
0.002001876
0.001974574
0.001943759
0.00190861
0.001869024
0.001827907
0.001865981
0.001908215
0.001947435
0.00198148
0.002010842
0.002035976
0.002057284
0.002075151
0.002090083
0.002102294
0.002112129
0.002119445
0.002125065
0.002128965
0.002130987
0.002131067
0.002129289
0.002125532
0.002119514
0.002111051
0.002100056
0.002086323
0.002069292
0.002047518
0.002023558
0.001996227
0.001964879
0.001929338
0.001890374
0.001847506
0.001846517
0.001889477
0.001929459
0.001964275
0.001994397
0.002020266
0.002042268
0.002060776
0.002076295
0.002089015
0.002099122
0.002106925
0.002112807