/*--------------------------------*- C++ -*----------------------------------*\
| =========                 |                                                 |
| \\      /  F ield         | OpenFOAM: The Open Source CFD Toolbox           |
|  \\    /   O peration     | Version:  2506                                  |
|   \\  /    A nd           | Website:  www.openfoam.com                      |
|    \\/     M anipulation  |                                                 |
\*---------------------------------------------------------------------------*/
FoamFile
{
    version     2.0;
    format      ascii;
    arch        "LSB;label=32;scalar=64";
    class       volScalarField;
    location    "1500/floor";
    object      T;
}
// * * * * * * * * * * * * * * * * * * * * * * * * * * * * * * * * * * * * * //

dimensions      [0 0 0 1 0 0 0];

internalField   nonuniform List<scalar> 
2700
(
300.9924
300.993
300.9938
300.9944
300.995
300.9955
300.9959
300.9963
300.9967
300.997
300.9972
300.9974
300.9975
300.9976
300.9976
300.9976
300.9976
300.9975
300.9974
300.9972
300.9969
300.9967
300.9963
300.9959
300.9954
300.9949
300.9943
300.9936
300.9929
300.9922
300.993
300.9937
300.9944
300.995
300.9956
300.9961
300.9965
300.9969
300.9972
300.9975
300.9977
300.9979
300.998
300.9981
300.9982
300.9982
300.9981
300.998
300.9979
300.9977
300.9975
300.9972
300.9969
300.9965
300.996
300.9955
300.9949
300.9942
300.9935
300.9929
300.9938
300.9944
300.9951
300.9957
300.9963
300.9968
300.9972
300.9975
300.9978
300.9981
300.9983
300.9985
300.9986
300.9987
300.9987
300.9987
300.9987
300.9986
300.9985
300.9983
300.9981
300.9978
300.9975
300.9971
300.9967
300.9961
300.9956
300.9949
300.9942
300.9936
300.9944
300.9951
300.9957
300.9963
300.9969
300.9973
300.9977
300.9981
300.9984
300.9986
300.9988
300.999
300.9991
300.9992
300.9992
300.9992
300.9992
300.9991
300.999
300.9988
300.9986
300.9984
300.998
300.9977
300.9972
300.9967
300.9962
300.9956
300.9949
300.9942
300.995
300.9956
300.9963
300.9969
300.9974
300.9979
300.9983
300.9986
300.9989
300.9991
300.9993
300.9994
300.9996
300.9996
300.9997
300.9997
300.9996
300.9996
300.9994
300.9993
300.9991
300.9988
300.9985
300.9982
300.9977
300.9973
300.9967
300.9961
300.9954
300.9948
300.9955
300.9962
300.9968
300.9974
300.9979
300.9983
300.9987
300.999
300.9993
300.9995
300.9997
300.9998
300.9999
301
301
301
301
300.9999
300.9998
300.9997
300.9995
300.9992
300.9989
300.9986
300.9982
300.9977
300.9972
300.9966
300.9959
300.9953
300.996
300.9966
300.9972
300.9978
300.9983
300.9987
300.9991
300.9994
300.9996
300.9998
301
301.0002
301.0003
301.0003
301.0004
301.0004
301.0003
301.0003
301.0002
301
300.9998
300.9996
300.9993
300.999
300.9986
300.9981
300.9976
300.997
300.9964
300.9958
300.9964
300.997
300.9976
300.9982
300.9986
300.999
300.9994
300.9997
300.9999
301.0001
301.0003
301.0004
301.0005
301.0006
301.0006
301.0006
301.0006
301.0005
301.0004
301.0003
301.0001
300.9999
300.9996
300.9993
300.9989
300.9985
300.998
300.9974
300.9968
300.9962
300.9968
300.9973
300.9979
300.9985
300.9989
300.9993
300.9997
301
301.0002
301.0004
301.0005
301.0007
301.0007
301.0008
301.0008
301.0008
301.0008
301.0008
301.0007
301.0005
301.0004
301.0001
300.9999
300.9996
300.9992
300.9988
300.9983
300.9977
300.9971
300.9965
300.9971
300.9976
300.9982
300.9987
300.9992
300.9996
300.9999
301.0002
301.0004
301.0006
301.0007
301.0008
301.0009
301.001
301.001
301.001
301.001
301.0009
301.0009
301.0007
301.0006
301.0003
301.0001
300.9998
300.9994
300.999
300.9985
300.998
300.9974
300.9968
300.9974
300.9979
300.9984
300.9989
300.9994
300.9998
301.0001
301.0003
301.0006
301.0007
301.0009
301.001
301.0011
301.0011
301.0012
301.0012
301.0011
301.0011
301.001
301.0009
301.0007
301.0005
301.0003
301
300.9996
300.9992
300.9987
300.9982
300.9976
300.9971
300.9985
300.9981
300.9986
300.9991
300.9995
300.9999
301.0002
301.0005
301.0007
301.0009
301.001
301.0011
301.0012
301.0013
301.0013
301.0013
301.0013
301.0012
301.0011
301.001
301.0008
301.0006
301.0004
301
300.9996
300.9992
300.9988
300.9982
300.9977
300.9972
300.9986
300.9983
300.9988
300.9992
300.9997
301
301.0003
301.0006
301.0008
301.001
301.0011
301.0012
301.0013
301.0013
301.0014
301.0014
301.0013
301.0013
301.0012
301.0011
301.0009
301.0007
301.0003
300.9993
300.9987
300.9983
300.9978
300.9973
300.9969
300.997
301.0027
300.9991
300.9989
300.9993
300.9997
301.0001
301.0004
301.0006
301.0008
301.001
301.0012
301.0013
301.0013
301.0014
301.0014
301.0014
301.0014
301.0013
301.0013
301.0012
301.001
301.0007
300.9997
300.9957
300.9936
300.993
300.9925
300.9921
300.9921
300.9944
301.0035
300.9993
300.999
300.9994
300.9998
301.0001
301.0004
301.0007
301.0009
301.001
301.0012
301.0013
301.0014
301.0014
301.0014
301.0014
301.0014
301.0014
301.0013
301.0012
301.001
301.0007
300.9995
300.9949
300.9926
300.992
300.9915
300.991
300.9906
300.9906
301.0036
300.9994
300.999
300.9994
300.9998
301.0001
301.0004
301.0007
301.0009
301.001
301.0012
301.0013
301.0014
301.0014
301.0014
301.0014
301.0014
301.0014
301.0013
301.0012
301.001
301.0007
300.9995
300.9948
300.9924
300.9918
300.9914
300.9909
300.9903
300.9898
301.0034
300.9993
300.9989
300.9993
300.9997
301.0001
301.0004
301.0006
301.0008
301.001
301.0012
301.0013
301.0013
301.0014
301.0014
301.0014
301.0014
301.0013
301.0013
301.0011
301.001
301.0007
300.9995
300.9947
300.9924
300.9918
300.9913
300.9908
300.9902
300.9897
301.0026
300.9991
300.9988
300.9992
300.9997
301
301.0003
301.0006
301.0008
301.001
301.0012
301.0012
301.0013
301.0013
301.0014
301.0014
301.0013
301.0013
301.0012
301.0011
301.0009
301.0006
300.9994
300.9948
300.9924
300.9918
300.9914
300.9908
300.9903
300.9897
300.9984
300.9982
300.9986
300.9991
300.9995
300.9999
301.0002
301.0005
301.0007
301.001
301.0021
301.0012
301.0012
301.0012
301.0013
301.0013
301.0013
301.0012
301.0011
301.001
301.0008
301.0005
300.9995
300.9955
300.9934
300.9928
300.9923
300.9918
300.9912
300.9906
300.9974
300.9979
300.9984
300.9989
300.9994
300.9998
301.0001
301.0003
301.0006
301.0008
301.001
301.001
301.0011
301.0011
301.0012
301.0012
301.0011
301.0011
301.001
301.0009
301.0007
301.0005
301.0001
300.9991
300.9984
300.998
300.9975
300.997
300.9964
300.9959
300.9971
300.9976
300.9982
300.9987
300.9992
300.9996
300.9999
301.0002
301.0004
301.0006
301.0007
301.0008
301.0009
301.001
301.001
301.001
301.001
301.0009
301.0008
301.0007
301.0005
301.0003
301.0001
300.9997
300.9993
300.9989
300.9984
300.9979
300.9973
300.9967
300.9968
300.9973
300.9979
300.9985
300.9989
300.9993
300.9997
300.9999
301.0002
301.0004
301.0005
301.0006
301.0007
301.0008
301.0008
301.0008
301.0008
301.0007
301.0007
301.0005
301.0003
301.0001
300.9999
300.9995
300.9992
300.9987
300.9983
300.9978
300.9977
300.9967
300.9964
300.997
300.9976
300.9982
300.9986
300.999
300.9994
300.9997
300.9999
301.0001
301.0003
301.0004
301.0005
301.0006
301.0006
301.0006
301.0006
301.0005
301.0004
301.0003
301.0001
300.9999
300.9996
300.9993
300.9989
300.9985
300.998
300.998
301.0002
300.9969
300.996
300.9966
300.9972
300.9978
300.9983
300.9987
300.9991
300.9994
300.9996
300.9998
301
301.0001
301.0002
301.0003
301.0003
301.0003
301.0003
301.0002
301.0001
301
300.9998
300.9996
300.9993
300.999
300.9986
300.9981
300.9976
300.9972
300.997
300.9959
300.9955
300.9961
300.9968
300.9974
300.9979
300.9983
300.9987
300.999
300.9993
300.9995
300.9997
300.9998
300.9999
301
301
301
301
300.9999
300.9998
300.9997
300.9995
300.9992
300.9989
300.9986
300.9982
300.9977
300.9972
300.9966
300.996
300.9953
300.995
300.9956
300.9963
300.9969
300.9974
300.9978
300.9982
300.9986
300.9988
300.9991
300.9993
300.9994
300.9995
300.9996
300.9996
300.9996
300.9996
300.9995
300.9994
300.9993
300.9991
300.9988
300.9985
300.9981
300.9977
300.9972
300.9967
300.9961
300.9954
300.9948
300.9944
300.995
300.9957
300.9963
300.9969
300.9973
300.9977
300.9981
300.9984
300.9986
300.9988
300.999
300.9991
300.9992
300.9992
300.9992
300.9992
300.9991
300.999
300.9988
300.9986
300.9983
300.998
300.9976
300.9972
300.9967
300.9962
300.9955
300.9949
300.9942
300.9937
300.9944
300.9951
300.9957
300.9962
300.9967
300.9972
300.9975
300.9978
300.9981
300.9983
300.9985
300.9986
300.9987
300.9987
300.9987
300.9987
300.9986
300.9985
300.9983
300.9981
300.9978
300.9975
300.9971
300.9966
300.9961
300.9955
300.9949
300.9942
300.9936
300.993
300.9937
300.9944
300.995
300.9956
300.9961
300.9965
300.9969
300.9972
300.9975
300.9977
300.9979
300.998
300.9981
300.9981
300.9981
300.9981
300.998
300.9979
300.9977
300.9975
300.9972
300.9968
300.9964
300.996
300.9955
300.9949
300.9942
300.9935
300.9929
300.9924
300.993
300.9937
300.9944
300.9949
300.9955
300.9959
300.9963
300.9966
300.9969
300.9972
300.9973
300.9975
300.9976
300.9976
300.9976
300.9976
300.9975
300.9973
300.9972
300.9969
300.9966
300.9963
300.9959
300.9954
300.9949
300.9943
300.9936
300.9929
300.9922
300.3998
300.4017
300.4037
300.4055
300.4072
300.4086
300.4099
300.411
300.4119
300.4127
300.4134
300.4139
300.4143
300.4145
300.4147
300.4147
300.4145
300.4143
300.4139
300.4134
300.4127
300.4119
300.4109
300.4097
300.4084
300.4069
300.4052
300.4033
300.4012
300.3993
300.4017
300.4036
300.4056
300.4074
300.409
300.4104
300.4116
300.4127
300.4136
300.4144
300.415
300.4155
300.4158
300.4161
300.4162
300.4162
300.4161
300.4158
300.4155
300.4149
300.4143
300.4135
300.4125
300.4114
300.4101
300.4086
300.407
300.4051
300.4031
300.4012
300.4038
300.4056
300.4076
300.4093
300.4109
300.4122
300.4134
300.4144
300.4153
300.416
300.4166
300.4171
300.4174
300.4177
300.4178
300.4178
300.4177
300.4174
300.4171
300.4166
300.416
300.4152
300.4142
300.4132
300.4119
300.4105
300.4088
300.407
300.4051
300.4032
300.4056
300.4075
300.4094
300.4111
300.4126
300.4139
300.415
300.416
300.4168
300.4175
300.4181
300.4185
300.4189
300.4191
300.4192
300.4192
300.4191
300.4189
300.4185
300.418
300.4174
300.4167
300.4158
300.4147
300.4135
300.4121
300.4106
300.4088
300.4069
300.405
300.4073
300.4091
300.411
300.4126
300.4141
300.4154
300.4165
300.4174
300.4182
300.4189
300.4194
300.4198
300.4201
300.4203
300.4204
300.4204
300.4203
300.4201
300.4198
300.4193
300.4187
300.418
300.4172
300.4162
300.415
300.4136
300.4121
300.4104
300.4085
300.4067
300.4088
300.4106
300.4124
300.414
300.4154
300.4166
300.4177
300.4186
300.4194
300.42
300.4205
300.4209
300.4212
300.4214
300.4215
300.4215
300.4214
300.4212
300.4209
300.4204
300.4199
300.4192
300.4184
300.4174
300.4162
300.4149
300.4134
300.4118
300.4099
300.4081
300.4101
300.4118
300.4136
300.4152
300.4166
300.4178
300.4188
300.4196
300.4204
300.421
300.4214
300.4218
300.4221
300.4223
300.4224
300.4224
300.4223
300.4221
300.4218
300.4214
300.4208
300.4202
300.4194
300.4184
300.4173
300.4161
300.4146
300.413
300.4112
300.4094
300.4113
300.413
300.4147
300.4162
300.4176
300.4187
300.4197
300.4205
300.4212
300.4218
300.4222
300.4226
300.4229
300.423
300.4231
300.4231
300.423
300.4229
300.4226
300.4222
300.4217
300.421
300.4203
300.4193
300.4183
300.417
300.4156
300.414
300.4122
300.4105
300.4122
300.4139
300.4156
300.4171
300.4184
300.4195
300.4205
300.4213
300.4219
300.4225
300.4229
300.4232
300.4235
300.4237
300.4238
300.4238
300.4237
300.4235
300.4232
300.4228
300.4224
300.4217
300.421
300.4201
300.4191
300.4179
300.4165
300.4149
300.4132
300.4115
300.4131
300.4147
300.4164
300.4178
300.4191
300.4202
300.4211
300.4219
300.4225
300.423
300.4235
300.4238
300.424
300.4242
300.4243
300.4243
300.4242
300.424
300.4238
300.4234
300.4229
300.4223
300.4216
300.4207
300.4197
300.4185
300.4172
300.4157
300.4139
300.4123
300.4142
300.4154
300.417
300.4184
300.4197
300.4207
300.4216
300.4224
300.423
300.4235
300.4239
300.4242
300.4244
300.4246
300.4247
300.4247
300.4246
300.4244
300.4242
300.4238
300.4234
300.4228
300.4221
300.4212
300.4202
300.4191
300.4178
300.4162
300.4146
300.413
300.4197
300.4163
300.4175
300.4189
300.4201
300.4211
300.422
300.4227
300.4233
300.4238
300.4242
300.4245
300.4248
300.4249
300.425
300.425
300.4249
300.4248
300.4245
300.4242
300.4237
300.4232
300.4224
300.4214
300.4204
300.4192
300.4179
300.4165
300.4148
300.4134
300.4173
300.4167
300.4179
300.4192
300.4204
300.4215
300.4223
300.423
300.4236
300.4241
300.4245
300.4248
300.425
300.4251
300.4252
300.4252
300.4252
300.425
300.4248
300.4244
300.424
300.4234
300.4224
300.4199
300.4181
300.4169
300.4156
300.4142
300.4128
300.4127
300.4298
300.4188
300.4183
300.4195
300.4207
300.4217
300.4225
300.4232
300.4238
300.4243
300.4246
300.4249
300.4251
300.4253
300.4254
300.4254
300.4253
300.4252
300.4249
300.4246
300.4241
300.4234
300.4209
300.4111
300.4028
300.401
300.3997
300.3984
300.3982
300.4034
300.432
300.4192
300.4185
300.4196
300.4208
300.4218
300.4226
300.4233
300.4239
300.4243
300.4247
300.425
300.4252
300.4254
300.4254
300.4255
300.4254
300.4252
300.425
300.4247
300.4242
300.4234
300.4206
300.4094
300.4003
300.3985
300.3972
300.3958
300.3944
300.3943
300.4321
300.4193
300.4185
300.4196
300.4208
300.4218
300.4226
300.4233
300.4239
300.4243
300.4247
300.425
300.4252
300.4254
300.4254
300.4255
300.4254
300.4252
300.425
300.4247
300.4242
300.4234
300.4206
300.4091
300.4001
300.3982
300.3969
300.3954
300.3938
300.3924
300.4318
300.4191
300.4183
300.4195
300.4207
300.4217
300.4225
300.4232
300.4238
300.4243
300.4247
300.4249
300.4251
300.4253
300.4254
300.4254
300.4253
300.4252
300.4249
300.4246
300.4241
300.4233
300.4205
300.4091
300.4
300.3981
300.3968
300.3953
300.3937
300.3921
300.4295
300.4185
300.4181
300.4193
300.4204
300.4215
300.4223
300.423
300.4236
300.4241
300.425
300.4248
300.425
300.4251
300.4252
300.4252
300.4252
300.425
300.4248
300.4244
300.424
300.4232
300.4203
300.4091
300.4
300.3982
300.3968
300.3954
300.3937
300.3921
300.4165
300.4163
300.4175
300.4189
300.4201
300.4211
300.422
300.4227
300.4234
300.4244
300.4309
300.4251
300.4248
300.4249
300.425
300.425
300.4249
300.4248
300.4245
300.4242
300.4237
300.4229
300.4204
300.4106
300.4023
300.4005
300.3992
300.3977
300.396
300.3944
300.4139
300.4154
300.417
300.4184
300.4197
300.4207
300.4216
300.4224
300.423
300.4235
300.4244
300.4242
300.4244
300.4246
300.4247
300.4247
300.4246
300.4244
300.4242
300.4238
300.4234
300.4227
300.4217
300.4192
300.4174
300.4161
300.4148
300.4133
300.4116
300.41
300.4131
300.4147
300.4164
300.4178
300.4191
300.4202
300.4211
300.4219
300.4225
300.423
300.4235
300.4238
300.424
300.4242
300.4242
300.4242
300.4242
300.424
300.4237
300.4234
300.4229
300.4223
300.4215
300.4205
300.4194
300.4182
300.4169
300.4154
300.4138
300.412
300.4122
300.4139
300.4156
300.4171
300.4184
300.4195
300.4204
300.4212
300.4219
300.4224
300.4229
300.4232
300.4235
300.4236
300.4237
300.4237
300.4236
300.4235
300.4232
300.4228
300.4223
300.4217
300.421
300.4201
300.419
300.4178
300.4165
300.4152
300.4148
300.4118
300.4112
300.4129
300.4147
300.4162
300.4175
300.4187
300.4197
300.4205
300.4212
300.4217
300.4222
300.4226
300.4228
300.423
300.4231
300.4231
300.423
300.4228
300.4225
300.4221
300.4216
300.421
300.4202
300.4193
300.4182
300.417
300.4158
300.4157
300.4232
300.4124
300.4101
300.4118
300.4136
300.4152
300.4165
300.4177
300.4187
300.4196
300.4203
300.4209
300.4214
300.4218
300.422
300.4222
300.4223
300.4223
300.4222
300.422
300.4217
300.4213
300.4208
300.4201
300.4193
300.4184
300.4173
300.416
300.4146
300.4133
300.4128
300.4098
300.4088
300.4105
300.4123
300.414
300.4154
300.4166
300.4177
300.4186
300.4193
300.4199
300.4204
300.4208
300.4211
300.4213
300.4214
300.4214
300.4213
300.4211
300.4208
300.4204
300.4198
300.4191
300.4183
300.4173
300.4162
300.4149
300.4134
300.4118
300.41
300.4081
300.4073
300.4091
300.4109
300.4126
300.414
300.4153
300.4164
300.4173
300.4181
300.4188
300.4193
300.4197
300.42
300.4203
300.4204
300.4204
300.4203
300.42
300.4197
300.4193
300.4187
300.418
300.4171
300.4161
300.4149
300.4136
300.412
300.4103
300.4084
300.4066
300.4056
300.4074
300.4093
300.411
300.4125
300.4138
300.415
300.416
300.4168
300.4175
300.418
300.4185
300.4188
300.419
300.4191
300.4191
300.419
300.4188
300.4185
300.418
300.4174
300.4166
300.4157
300.4147
300.4135
300.4121
300.4105
300.4087
300.4068
300.405
300.4037
300.4056
300.4075
300.4093
300.4108
300.4122
300.4134
300.4144
300.4152
300.416
300.4166
300.417
300.4174
300.4176
300.4177
300.4177
300.4176
300.4174
300.417
300.4165
300.4159
300.4151
300.4142
300.4131
300.4118
300.4104
300.4088
300.407
300.405
300.4031
300.4017
300.4036
300.4055
300.4073
300.4089
300.4103
300.4116
300.4126
300.4135
300.4143
300.4149
300.4154
300.4157
300.416
300.4161
300.4161
300.416
300.4157
300.4154
300.4149
300.4142
300.4134
300.4124
300.4113
300.41
300.4085
300.4069
300.405
300.403
300.4011
300.3997
300.4017
300.4037
300.4055
300.4071
300.4086
300.4098
300.4109
300.4119
300.4127
300.4133
300.4138
300.4142
300.4145
300.4146
300.4146
300.4145
300.4142
300.4138
300.4133
300.4126
300.4118
300.4108
300.4096
300.4083
300.4068
300.4051
300.4032
300.4012
300.3992
300.2314
300.2367
300.2422
300.2471
300.2515
300.2554
300.2588
300.2617
300.2643
300.2664
300.2682
300.2695
300.2705
300.2712
300.2716
300.2715
300.2712
300.2705
300.2694
300.268
300.2661
300.2639
300.2612
300.258
300.2544
300.2504
300.2458
300.2407
300.2351
300.2296
300.2368
300.2421
300.2474
300.2523
300.2566
300.2604
300.2637
300.2665
300.269
300.271
300.2727
300.2739
300.2749
300.2756
300.2759
300.2759
300.2755
300.2749
300.2738
300.2724
300.2707
300.2685
300.2659
300.2628
300.2593
300.2553
300.2508
300.2458
300.2403
300.235
300.2424
300.2476
300.2528
300.2575
300.2617
300.2654
300.2685
300.2713
300.2736
300.2756
300.2771
300.2784
300.2793
300.2799
300.2802
300.2802
300.2799
300.2792
300.2782
300.2769
300.2752
300.2731
300.2706
300.2676
300.2642
300.2603
300.256
300.2511
300.2457
300.2404
300.2474
300.2525
300.2577
300.2622
300.2663
300.2698
300.2729
300.2755
300.2778
300.2796
300.2811
300.2823
300.2831
300.2837
300.284
300.284
300.2837
300.2831
300.2821
300.2809
300.2792
300.2772
300.2748
300.2719
300.2686
300.2649
300.2606
300.2558
300.2506
300.2454
300.252
300.257
300.262
300.2664
300.2704
300.2738
300.2767
300.2792
300.2814
300.2832
300.2846
300.2857
300.2865
300.287
300.2873
300.2873
300.287
300.2864
300.2855
300.2843
300.2827
300.2808
300.2785
300.2757
300.2725
300.2689
300.2647
300.2601
300.2549
300.2499
300.256
300.2609
300.2658
300.2702
300.274
300.2772
300.2801
300.2825
300.2845
300.2862
300.2876
300.2886
300.2894
300.2899
300.2902
300.2901
300.2899
300.2893
300.2885
300.2873
300.2858
300.2839
300.2817
300.279
300.2759
300.2724
300.2684
300.2638
300.2588
300.2538
300.2596
300.2644
300.2692
300.2734
300.2771
300.2803
300.283
300.2853
300.2872
300.2888
300.2901
300.2911
300.2918
300.2923
300.2926
300.2926
300.2923
300.2918
300.291
300.2898
300.2884
300.2866
300.2844
300.2819
300.2789
300.2755
300.2715
300.2671
300.2622
300.2573
300.2627
300.2674
300.272
300.2762
300.2797
300.2828
300.2855
300.2877
300.2895
300.2911
300.2923
300.2932
300.2939
300.2944
300.2946
300.2946
300.2944
300.2939
300.2931
300.292
300.2906
300.2889
300.2868
300.2843
300.2814
300.2781
300.2743
300.2699
300.2651
300.2603
300.2653
300.27
300.2745
300.2785
300.282
300.285
300.2875
300.2897
300.2915
300.2929
300.2941
300.295
300.2956
300.2961
300.2963
300.2963
300.2961
300.2956
300.2948
300.2938
300.2925
300.2908
300.2888
300.2864
300.2836
300.2803
300.2766
300.2723
300.2676
300.2629
300.2676
300.2721
300.2766
300.2805
300.2839
300.2868
300.2893
300.2913
300.2931
300.2945
300.2956
300.2964
300.2971
300.2975
300.2977
300.2977
300.2975
300.297
300.2963
300.2953
300.294
300.2924
300.2904
300.2881
300.2853
300.2822
300.2785
300.2744
300.2697
300.2651
300.271
300.274
300.2783
300.2821
300.2855
300.2883
300.2907
300.2927
300.2943
300.2957
300.2968
300.2976
300.2982
300.2986
300.2988
300.2988
300.2986
300.2981
300.2975
300.2965
300.2952
300.2937
300.2917
300.2894
300.2867
300.2836
300.28
300.276
300.2714
300.2668
300.2968
300.2768
300.2797
300.2834
300.2867
300.2894
300.2918
300.2937
300.2953
300.2966
300.2977
300.2985
300.2991
300.2995
300.2997
300.2997
300.2995
300.299
300.2984
300.2974
300.2962
300.2946
300.2927
300.2901
300.2874
300.2843
300.2808
300.2767
300.2723
300.268
300.2782
300.2772
300.2807
300.2843
300.2875
300.2903
300.2926
300.2945
300.2961
300.2973
300.2984
300.2991
300.2997
300.3001
300.3003
300.3003
300.3001
300.2997
300.299
300.2981
300.2969
300.2953
300.2928
300.2876
300.2828
300.2795
300.276
300.2721
300.2682
300.2663
300.3168
300.2818
300.2817
300.285
300.2881
300.2908
300.2931
300.295
300.2965
300.2978
300.2988
300.2996
300.3001
300.3005
300.3007
300.3007
300.3005
300.3001
300.2995
300.2985
300.2973
300.2955
300.2903
300.2709
300.2378
300.2328
300.2293
300.2256
300.2238
300.2318
300.3214
300.2828
300.2821
300.2853
300.2884
300.2911
300.2934
300.2952
300.2968
300.298
300.299
300.2998
300.3003
300.3007
300.3009
300.3009
300.3007
300.3003
300.2997
300.2988
300.2975
300.2956
300.29
300.2677
300.2327
300.2275
300.224
300.2201
300.2162
300.2143
300.3218
300.2829
300.2821
300.2853
300.2884
300.2911
300.2934
300.2952
300.2968
300.298
300.299
300.2998
300.3003
300.3007
300.3009
300.3009
300.3007
300.3003
300.2997
300.2988
300.2975
300.2956
300.2899
300.2674
300.2322
300.227
300.2234
300.2195
300.2151
300.211
300.3211
300.2825
300.2817
300.285
300.2881
300.2908
300.2931
300.295
300.2965
300.2978
300.2989
300.2996
300.3001
300.3005
300.3007
300.3007
300.3005
300.3001
300.2994
300.2985
300.2973
300.2954
300.2896
300.2671
300.2319
300.2267
300.2231
300.2192
300.2147
300.2103
300.316
300.2811
300.281
300.2844
300.2875
300.2903
300.2926
300.2945
300.2961
300.2975
300.3003
300.2993
300.2997
300.3001
300.3003
300.3003
300.3001
300.2997
300.299
300.2981
300.2968
300.2949
300.2892
300.267
300.2318
300.2266
300.223
300.219
300.2146
300.2101
300.2756
300.276
300.2797
300.2834
300.2866
300.2894
300.2918
300.2937
300.2954
300.2986
300.3314
300.3004
300.2991
300.2995
300.2997
300.2997
300.2994
300.299
300.2983
300.2974
300.2961
300.2942
300.2891
300.2695
300.2364
300.2314
300.2278
300.2237
300.2192
300.2147
300.2698
300.2739
300.2783
300.2821
300.2854
300.2883
300.2907
300.2927
300.2943
300.2958
300.2987
300.2977
300.2982
300.2986
300.2988
300.2988
300.2986
300.2981
300.2974
300.2964
300.2952
300.2935
300.291
300.2857
300.2808
300.2775
300.2739
300.2698
300.2652
300.2607
300.2676
300.2721
300.2766
300.2805
300.2839
300.2868
300.2892
300.2913
300.293
300.2944
300.2956
300.2964
300.297
300.2974
300.2977
300.2977
300.2974
300.297
300.2962
300.2952
300.2939
300.2923
300.2903
300.2876
300.2848
300.2816
300.2779
300.2738
300.2694
300.2646
300.2653
300.2699
300.2745
300.2785
300.282
300.285
300.2875
300.2896
300.2914
300.2929
300.294
300.2949
300.2956
300.296
300.2963
300.2962
300.296
300.2955
300.2948
300.2937
300.2924
300.2907
300.2887
300.2863
300.2835
300.2802
300.2765
300.2729
300.2713
300.2635
300.2626
300.2673
300.272
300.2761
300.2797
300.2828
300.2854
300.2876
300.2895
300.291
300.2922
300.2931
300.2938
300.2943
300.2945
300.2945
300.2943
300.2938
300.293
300.2919
300.2905
300.2888
300.2867
300.2842
300.2813
300.278
300.2745
300.2736
300.3006
300.2643
300.2595
300.2643
300.2691
300.2733
300.277
300.2802
300.2829
300.2852
300.2871
300.2887
300.29
300.291
300.2917
300.2922
300.2925
300.2925
300.2922
300.2917
300.2909
300.2897
300.2883
300.2865
300.2843
300.2818
300.2788
300.2754
300.2715
300.2676
300.2658
300.2579
300.2559
300.2608
300.2657
300.2701
300.2739
300.2771
300.28
300.2824
300.2844
300.2861
300.2874
300.2885
300.2893
300.2898
300.29
300.29
300.2897
300.2892
300.2883
300.2872
300.2857
300.2838
300.2816
300.2789
300.2758
300.2723
300.2683
300.2638
300.259
300.2538
300.2519
300.2569
300.2619
300.2663
300.2703
300.2737
300.2766
300.2791
300.2813
300.283
300.2844
300.2855
300.2863
300.2869
300.2872
300.2872
300.2869
300.2863
300.2854
300.2842
300.2826
300.2807
300.2783
300.2756
300.2724
300.2688
300.2646
300.26
300.2548
300.2498
300.2473
300.2524
300.2575
300.2621
300.2662
300.2697
300.2728
300.2754
300.2776
300.2795
300.281
300.2821
300.283
300.2836
300.2839
300.2838
300.2835
300.2829
300.282
300.2807
300.2791
300.277
300.2746
300.2718
300.2685
300.2647
300.2605
300.2557
300.2504
300.2453
300.2422
300.2474
300.2527
300.2574
300.2615
300.2652
300.2684
300.2711
300.2734
300.2754
300.277
300.2782
300.2791
300.2797
300.28
300.28
300.2797
300.279
300.2781
300.2767
300.275
300.2729
300.2704
300.2675
300.2641
300.2602
300.2558
300.2509
300.2456
300.2403
300.2366
300.2419
300.2473
300.2521
300.2564
300.2602
300.2635
300.2663
300.2688
300.2708
300.2725
300.2737
300.2747
300.2754
300.2757
300.2757
300.2753
300.2747
300.2736
300.2722
300.2705
300.2683
300.2657
300.2626
300.2591
300.2552
300.2507
300.2457
300.2402
300.2348
300.2312
300.2366
300.242
300.2469
300.2513
300.2552
300.2586
300.2616
300.2641
300.2663
300.268
300.2693
300.2703
300.271
300.2714
300.2713
300.271
300.2703
300.2692
300.2678
300.2659
300.2637
300.261
300.2579
300.2543
300.2502
300.2456
300.2405
300.2349
300.2295
)
;

boundaryField
{
    fmaxY
    {
        type            zeroGradient;
    }
    fminX
    {
        type            zeroGradient;
    }
    fmaxX
    {
        type            zeroGradient;
    }
    fminY
    {
        type            zeroGradient;
    }
    fminZ
    {
        type            externalWallHeatFluxTemperature;
        mode            coefficient;
        kappaMethod     solidThermo;
        kappa           none;
        h               constant 1000000;
        Ta              uniform 313;
        thicknessLayers List<scalar> 2(1 2);
        kappaLayers     List<scalar> 2(100 200);
        qr              none;
        refValue        uniform 313;
        refGradient     uniform 0;
        valueFraction   nonuniform List<scalar> 
900
(
0.04950261
0.04950261
0.04950261
0.04950261
0.04950261
0.04950261
0.04950261
0.04950261
0.04950261
0.04950261
0.04950261
0.04950261
0.04950261
0.04950261
0.04950261
0.04950261
0.04950261
0.04950261
0.04950261
0.04950261
0.04950261
0.04950261
0.04950261
0.04950261
0.04950261
0.04950261
0.04950261
0.04950261
0.04950261
0.04950261
0.04950261
0.04950261
0.04950261
0.04950261
0.04950261
0.04950261
0.04950261
0.04950261
0.04950261
0.04950261
0.04950261
0.04950261
0.04950261
0.04950261
0.04950261
0.04950261
0.04950261
0.04950261
0.04950261
0.04950261
0.04950261
0.04950261
0.04950261
0.04950261
0.04950261
0.04950261
0.04950261
0.04950261
0.04950261
0.04950261
0.04950261
0.04950261
0.04950261
0.04950261
0.04950261
0.04950261
0.04950261
0.04950261
0.04950261
0.04950261
0.04950261
0.04950261
0.04950261
0.04950261
0.04950261
0.04950261
0.04950261
0.04950261
0.04950261
0.04950261
0.04950261
0.04950261
0.04950261
0.04950261
0.04950261
0.04950261
0.04950261
0.04950261
0.04950261
0.04950261
0.04950261
0.04950261
0.04950261
0.04950261
0.04950261
0.04950261
0.04950261
0.04950261
0.04950261
0.04950261
0.04950261
0.04950261
0.04950261
0.04950261
0.04950261
0.04950261
0.04950261
0.04950261
0.04950261
0.04950261
0.04950261
0.04950261
0.04950261
0.04950261
0.04950261
0.04950261
0.04950261
0.04950261
0.04950261
0.04950261
0.04950261
0.04950261
0.04950261
0.04950261
0.04950261
0.04950261
0.04950261
0.04950261
0.04950261
0.04950261
0.04950261
0.04950261
0.04950261
0.04950261
0.04950261
0.04950261
0.04950261
0.04950261
0.04950261
0.04950261
0.04950261
0.04950261
0.04950261
0.04950261
0.04950261
0.04950261
0.04950261
0.04950261
0.04950261
0.04950261
0.04950261
0.04950261
0.04950261
0.04950261
0.04950261
0.04950261
0.04950261
0.04950261
0.04950261
0.04950261
0.04950261
0.04950261
0.04950261
0.04950261
0.04950261
0.04950261
0.04950261
0.04950261
0.04950261
0.04950261
0.04950261
0.04950261
0.04950261
0.04950261
0.04950261
0.04950261
0.04950261
0.04950261
0.04950261
0.04950261
0.04950261
0.04950261
0.04950261
0.04950261
0.04950261
0.04950261
0.04950261
0.04950261
0.04950261
0.04950261
0.04950261
0.04950261
0.04950261
0.04950261
0.04950261
0.04950261
0.04950261
0.04950261
0.04950261
0.04950261
0.04950261
0.04950261
0.04950261
0.04950261
0.04950261
0.04950261
0.04950261
0.04950261
0.04950261
0.04950261
0.04950261
0.04950261
0.04950261
0.04950261
0.04950261
0.04950261
0.04950261
0.04950261
0.04950261
0.04950261
0.04950261
0.04950261
0.04950261
0.04950261
0.04950261
0.04950261
0.04950261
0.04950261
0.04950261
0.04950261
0.04950261
0.04950261
0.04950261
0.04950261
0.04950261
0.04950261
0.04950261
0.04950261
0.04950261
0.04950261
0.04950261
0.04950261
0.04950261
0.04950261
0.04950261
0.04950261
0.04950261
0.04950261
0.04950261
0.04950261
0.04950261
0.04950261
0.04950261
0.04950261
0.04950261
0.04950261
0.04950261
0.04950261
0.04950261
0.04950261
0.04950261
0.04950261
0.04950261
0.04950261
0.04950261
0.04950261
0.04950261
0.04950261
0.04950261
0.04950261
0.04950261
0.04950261
0.04950261
0.04950261
0.04950261
0.04950261
0.04950261
0.04950261
0.04950261
0.04950261
0.04950261
0.04950261
0.04950261
0.04950261
0.04950261
0.04950261
0.04950261
0.04950261
0.04950261
0.04950261
0.04950261
0.04950261
0.04950261
0.04950261
0.04950261
0.04950261
0.04950261
0.04950261
0.04950261
0.04950261
0.04950261
0.04950261
0.04950261
0.04950261
0.04950261
0.04950261
0.04950261
0.04950261
0.04950261
0.04950261
0.04950261
0.04950261
0.04950261
0.04950261
0.04950261
0.04950261
0.04950261
0.04950261
0.04950261
0.04950261
0.04950261
0.04950261
0.04950261
0.04950261
0.04950261
0.04950261
0.04950261
0.04950261
0.04950261
0.04950261
0.04950261
0.04950261
0.04950261
0.04950261
0.04950261
0.04950261
0.04950261
0.04950261
0.04950261
0.04950261
0.04950261
0.04950261
0.04950261
0.04950261
0.04950261
0.04950261
0.04950261
0.04950261
0.04950261
0.04950261
0.04950261
0.04950261
0.04950261
0.04950261
0.04950261
0.04950261
0.04950261
0.04950261
0.04950261
0.04950261
0.04950261
0.04950261
0.04950261
0.04950261
0.04950261
0.04950261
0.04950261
0.04950261
0.04950261
0.04950261
0.04950261
0.04950261
0.04950261
0.04950261
0.04950261
0.04950261
0.04950261
0.04950261
0.04950261
0.04950261
0.04950261
0.04950261
0.04950261
0.04950261
0.04950261
0.04950261
0.04950261
0.04950261
0.04950261
0.04950261
0.04950261
0.04950261
0.04950261
0.04950261
0.04950261
0.04950261
0.04950261
0.04950261
0.04950261