/*--------------------------------*- C++ -*----------------------------------*\
| =========                 |                                                 |
| \\      /  F ield         | OpenFOAM: The Open Source CFD Toolbox           |
|  \\    /   O peration     | Version:  2506                                  |
|   \\  /    A nd           | Website:  www.openfoam.com                      |
|    \\/     M anipulation  |                                                 |
\*---------------------------------------------------------------------------*/
FoamFile
{
    version     2.0;
    format      ascii;
    arch        "LSB;label=32;scalar=64";
    class       volScalarField;
    location    "90/airRegion";
    object      epsilon;
}
// * * * * * * * * * * * * * * * * * * * * * * * * * * * * * * * * * * * * * //

dimensions      [0 2 -3 0 0 0 0];

internalField   nonuniform List<scalar> 
260661
(
0.0258652
0.02006267
0.02112154
0.01849347
0.01801028
0.0178558
0.01778033
0.01776868
0.01778121
0.01779714
0.01781097
0.01782228
0.01783163
0.01783957
0.01784649
0.01785266
0.01785825
0.01786339
0.01786818
0.01787267
0.01787691
0.01788095
0.0178848
0.0178885
0.01789209
0.01789559
0.01789907
0.01790255
0.01790612
0.01790983
0.01791378
0.01791806
0.0179228
0.01792814
0.01793426
0.01794138
0.0179498
0.01795986
0.01797204
0.01798702
0.01800569
0.01802946
0.0180606
0.01810343
0.01816779
0.01827882
0.01853521
0.01958778
0.02616264
0.07137114
0.02126503
0.01864925
0.01824959
0.01782619
0.01777996
0.01774998
0.01774467
0.01776338
0.0177887
0.0178117
0.01783072
0.01784635
0.01785947
0.01787077
0.01788073
0.01788969
0.01789787
0.01790543
0.01791249
0.01791914
0.01792542
0.0179314
0.01793712
0.0179426
0.01794792
0.0179531
0.01795823
0.01796337
0.01796862
0.01797407
0.01797986
0.01798614
0.01799308
0.01800089
0.01800983
0.01802021
0.01803245
0.01804704
0.01806465
0.0180862
0.01811293
0.0181467
0.01819047
0.01824955
0.0183351
0.01847416
0.01873865
0.01935508
0.02327347
0.07053661
0.01995257
0.01822216
0.01777102
0.01776697
0.01784034
0.01789581
0.01794384
0.01798803
0.01802596
0.01805712
0.01808263
0.0181039
0.01812206
0.01813792
0.01815206
0.01816488
0.01817667
0.01818763
0.0181979
0.01820758
0.01821675
0.01822548
0.01823382
0.01824183
0.01824957
0.01825711
0.01826455
0.01827199
0.01827956
0.01828742
0.01829575
0.01830477
0.01831472
0.01832591
0.0183387
0.01835353
0.01837096
0.01839169
0.01841664
0.01844704
0.0184846
0.01853178
0.01859251
0.01867358
0.01878853
0.01896736
0.01928045
0.01988897
0.02350776
0.06945168
0.0184194
0.01783303
0.01776364
0.01783737
0.01794019
0.01802952
0.01810221
0.01816112
0.01820877
0.01824759
0.01827977
0.01830703
0.01833064
0.01835152
0.01837031
0.01838748
0.01840335
0.01841816
0.01843208
0.01844524
0.01845773
0.01846962
0.01848098
0.01849187
0.01850237
0.01851259
0.01852264
0.01853266
0.01854283
0.01855337
0.01856452
0.01857658
0.01858986
0.01860479
0.01862182
0.01864154
0.01866468
0.01869214
0.01872511
0.01876515
0.01881442
0.01887604
0.01895484
0.01905911
0.01920478
0.01942566
0.01979707
0.02048206
0.024191
0.06890503
0.01814466
0.01781741
0.01784154
0.01793907
0.01805753
0.01816204
0.01824685
0.01831504
0.01837037
0.01841604
0.01845449
0.01848756
0.01851658
0.01854251
0.01856605
0.01858769
0.01860781
0.01862667
0.01864445
0.01866129
0.0186773
0.01869253
0.01870709
0.01872101
0.01873442
0.01874743
0.01876018
0.01877286
0.01878568
0.01879893
0.01881292
0.01882804
0.01884467
0.01886333
0.01888461
0.01890922
0.01893804
0.01897218
0.01901305
0.01906254
0.0191232
0.01919868
0.01929459
0.01942034
0.01959365
0.01985101
0.02027088
0.02101144
0.02475826
0.06854339
0.01790692
0.01776252
0.01789503
0.01802799
0.01816133
0.01827535
0.01836799
0.01844314
0.01850495
0.01855673
0.01860097
0.01863953
0.01867375
0.01870461
0.01873284
0.01875898
0.0187834
0.01880638
0.01882811
0.01884873
0.01886836
0.01888704
0.0189049
0.01892194
0.01893831
0.01895411
0.01896954
0.01898482
0.01900025
0.01901614
0.01903286
0.01905089
0.0190707
0.01909294
0.01911826
0.01914751
0.01918172
0.01922215
0.01927044
0.01932872
0.01939985
0.01948791
0.01959904
0.01974342
0.01993988
0.02022644
0.02068287
0.02146023
0.0252169
0.06828546
0.01778826
0.01774538
0.01794219
0.01810056
0.01824552
0.01836716
0.01846625
0.01854742
0.01861502
0.01867237
0.01872199
0.01876571
0.01880489
0.01884053
0.01887337
0.01890396
0.01893268
0.0189598
0.01898554
0.01901004
0.01903339
0.01905561
0.0190768
0.019097
0.01911632
0.0191349
0.01915294
0.01917071
0.01918858
0.01920689
0.01922615
0.01924687
0.01926963
0.01929515
0.01932419
0.01935772
0.01939686
0.01944305
0.01949807
0.01956425
0.01964468
0.01974374
0.01986794
0.02002788
0.02024302
0.02055215
0.02103544
0.02183704
0.02559216
0.06809132
0.01776796
0.01776162
0.01798588
0.01815878
0.01831269
0.01844111
0.01854614
0.0186329
0.01870585
0.01876839
0.01882305
0.01887166
0.01891559
0.01895586
0.0189932
0.01902818
0.01906118
0.01909249
0.01912232
0.01915076
0.01917788
0.01920372
0.01922832
0.01925168
0.01927394
0.01929522
0.01931576
0.01933586
0.01935596
0.01937648
0.01939798
0.0194211
0.01944648
0.01947492
0.01950729
0.01954463
0.0195882
0.01963952
0.0197005
0.0197736
0.01986211
0.01997057
0.02010569
0.02027835
0.02050829
0.02083466
0.02133765
0.02215545
0.02590385
0.06793845
0.01777958
0.01778645
0.01802307
0.01820532
0.01836661
0.01850126
0.01861191
0.01870393
0.01878193
0.01884936
0.01890878
0.01896205
0.01901055
0.01905531
0.01909708
0.0191364
0.01917369
0.01920923
0.01924319
0.01927565
0.01930664
0.01933614
0.01936419
0.01939075
0.0194159
0.0194398
0.01946269
0.01948495
0.01950699
0.01952945
0.01955287
0.01957803
0.01960564
0.0196366
0.01967186
0.01971253
0.01975996
0.01981574
0.01988189
0.01996097
0.02005635
0.02017269
0.02031681
0.02049971
0.02074127
0.02108081
0.02159844
0.02242734
0.02616696
0.067814
0.01779504
0.01780875
0.01805314
0.01824266
0.01841043
0.01855087
0.01866682
0.01876382
0.0188466
0.01891867
0.01898262
0.01904035
0.01909327
0.0191424
0.0191885
0.01923214
0.01927373
0.01931354
0.01935169
0.01938827
0.01942325
0.01945657
0.01948815
0.01951795
0.01954597
0.01957236
0.01959738
0.01962149
0.01964519
0.01966923
0.0196942
0.019721
0.01975043
0.01978347
0.01982114
0.01986463
0.01991533
0.01997493
0.02004549
0.02012962
0.02023077
0.02035363
0.02050509
0.02069618
0.02094685
0.02129648
0.02182519
0.02266194
0.02639223
0.06771019
0.01780819
0.0178268
0.01807727
0.01827298
0.01844656
0.01859235
0.01871327
0.01881499
0.01890229
0.01897876
0.01904704
0.01910905
0.01916622
0.01921959
0.01926995
0.0193179
0.01936381
0.01940793
0.01945038
0.01949123
0.01953031
0.01956753
0.01960275
0.01963581
0.01966666
0.01969541
0.01972239
0.01974809
0.0197731
0.01979827
0.01982436
0.01985239
0.01988319
0.01991781
0.01995741
0.02000322
0.02005665
0.02011942
0.02019368
0.02028203
0.02038795
0.02051616
0.02067356
0.02087118
0.02112899
0.02148646
0.02202371
0.02286616
0.02658729
0.06762205
0.0178187
0.01784127
0.01809686
0.01829799
0.01847678
0.01862748
0.01875304
0.01885918
0.01895074
0.01903139
0.01910378
0.01916989
0.01923117
0.01928869
0.01934325
0.01939545
0.01944568
0.01949419
0.01954107
0.01958627
0.01962964
0.01967097
0.01970993
0.01974627
0.01977991
0.01981091
0.01983958
0.01986649
0.01989242
0.01991832
0.01994509
0.01997383
0.02000553
0.02004131
0.02008235
0.02012995
0.02018557
0.02025093
0.02032822
0.02042004
0.02052987
0.02066244
0.02082462
0.02102744
0.02129088
0.02165449
0.02219845
0.02304518
0.02675761
0.06754626
0.01782713
0.01785303
0.01811303
0.01831891
0.01850238
0.01865756
0.0187874
0.01889765
0.01899322
0.0190778
0.01915409
0.01922411
0.01928933
0.01935086
0.01940956
0.01946598
0.01952053
0.01957348
0.01962487
0.01967461
0.01972244
0.019768
0.01981085
0.01985059
0.01988698
0.01992002
0.01995009
0.01997788
0.0200043
0.02003042
0.02005738
0.02008637
0.02011852
0.02015499
0.020197
0.02024591
0.02030324
0.02037068
0.02045038
0.02054503
0.02065804
0.02079413
0.02096015
0.02116712
0.02143503
0.0218035
0.02235283
0.02320282
0.02690718
0.0674805
0.01783401
0.01786273
0.01812656
0.01833662
0.01852427
0.01868351
0.01881727
0.01893132
0.01903062
0.01911887
0.01919885
0.01927258
0.01934157
0.01940698
0.01946967
0.01953024
0.01958912
0.01964653
0.01970252
0.01975692
0.01980935
0.01985933
0.01990621
0.01994941
0.01998851
0.02002345
0.02005462
0.02008286
0.0201093
0.0201352
0.02016189
0.02019067
0.0202228
0.0202595
0.02030207
0.0203519
0.02041046
0.0204795
0.02056112
0.02065803
0.0207736
0.02091252
0.02108163
0.02129192
0.02156338
0.02193576
0.02248944
0.02334199
0.02703895
0.06742314
0.01783969
0.01787086
0.01813801
0.01835173
0.0185431
0.01870599
0.01884331
0.01896085
0.01906358
0.01915525
0.01923866
0.01931586
0.01938843
0.01945754
0.01952408
0.01958868
0.01965181
0.01971367
0.0197743
0.01983343
0.0198906
0.01994514
0.01999617
0.0200429
0.02008466
0.0201213
0.02015328
0.0201816
0.02020759
0.0202328
0.02025876
0.02028688
0.02031861
0.02035517
0.02039797
0.02044833
0.02050773
0.02057799
0.02066113
0.0207598
0.02087742
0.02101862
0.0211902
0.02140315
0.02167748
0.02205301
0.02261026
0.02346485
0.02715508
0.06737302
0.01784446
0.01787771
0.01814775
0.01836468
0.01855934
0.01872548
0.01886601
0.01898671
0.01909256
0.01918737
0.01927393
0.01935437
0.01943027
0.01950285
0.01957303
0.01964151
0.01970874
0.01977495
0.01984015
0.01990401
0.01996597
0.02002512
0.02008037
0.02013062
0.02017498
0.02021314
0.02024562
0.02027362
0.0202988
0.02032295
0.02034781
0.02037495
0.02040595
0.02044211
0.02048485
0.02053543
0.02059541
0.02066654
0.02075083
0.02085091
0.02097018
0.0211132
0.02128677
0.02150186
0.02177851
0.02215661
0.02271682
0.02357305
0.02725724
0.06732924
0.01784846
0.01788352
0.01815605
0.01837578
0.01857332
0.01874234
0.01888572
0.01900924
0.01911791
0.01921553
0.01930496
0.01938833
0.01946729
0.01954306
0.01961662
0.01968869
0.01975981
0.01983016
0.01989974
0.0199682
0.02003482
0.02009854
0.02015795
0.02021168
0.02025851
0.02029799
0.02033071
0.02035813
0.02038222
0.02040506
0.02042858
0.02045454
0.02048462
0.02052018
0.02056261
0.02061326
0.02067363
0.02074538
0.02083059
0.02093178
0.02105236
0.02119685
0.02137203
0.02158886
0.02186739
0.02224761
0.0228103
0.02366785
0.02734666
0.06729117
0.01785184
0.01788843
0.0181631
0.01838525
0.01858528
0.01875681
0.01890269
0.01902869
0.01913983
0.01923996
0.01933192
0.0194179
0.01949956
0.0195782
0.01965481
0.01973014
0.01980478
0.01987891
0.01995251
0.02002525
0.02009624
0.02016423
0.02022759
0.02028459
0.02033371
0.02037433
0.02040714
0.02043387
0.02045672
0.02047815
0.02050028
0.02052506
0.02055417
0.0205891
0.02063118
0.02068182
0.02074243
0.02081468
0.0209006
0.02100272
0.02112434
0.02127004
0.02144653
0.02166478
0.02194486
0.02232683
0.02289158
0.02375023
0.02742431
0.0672583
0.01785466
0.01789255
0.01816903
0.01839323
0.01859539
0.01876908
0.01891709
0.01904523
0.01915851
0.01926079
0.01935494
0.01944316
0.01952716
0.01960825
0.01968748
0.01976563
0.01984327
0.01992067
0.01999781
0.02007427
0.02014908
0.02022085
0.02028769
0.02034758
0.02039874
0.02044036
0.0204732
0.02049926
0.02052103
0.0205412
0.02056211
0.02058586
0.02061417
0.02064854
0.02069036
0.02074098
0.0208018
0.02087448
0.02096103
0.02106391
0.02118642
0.02133312
0.02151071
0.02173012
0.02201148
0.0223949
0.02296137
0.02382092
0.02749091
0.06723027
0.01785698
0.01789595
0.01817394
0.01839985
0.01860379
0.01877927
0.01892908
0.019059
0.01917407
0.01927813
0.01937409
0.01946417
0.01955008
0.01963316
0.0197145
0.01979491
0.01987497
0.01995501
0.02003498
0.02011436
0.02019223
0.02026702
0.02033669
0.02039893
0.02045174
0.0204942
0.02052716
0.0205528
0.02057386
0.02059316
0.02061323
0.02063626
0.02066409
0.02069816
0.02073991
0.02079062
0.02085172
0.02092484
0.02101197
0.02111553
0.02123882
0.02138638
0.02156488
0.02178527
0.02206769
0.02245231
0.02302022
0.0238805
0.02754704
0.06720679
0.01785885
0.01789869
0.0181779
0.01840518
0.01861056
0.01878749
0.01893874
0.0190701
0.01918658
0.01929206
0.01938943
0.01948094
0.01956831
0.0196529
0.0197358
0.01981784
0.01989962
0.01998151
0.02006344
0.02014484
0.02022481
0.02030165
0.02037325
0.02043713
0.02049119
0.02053441
0.02056769
0.0205933
0.02061414
0.02063315
0.02065297
0.02067583
0.02070358
0.0207377
0.02077964
0.02083064
0.02089216
0.02096577
0.02105352
0.02115773
0.02128172
0.02143002
0.02160931
0.02183053
0.02211384
0.02249945
0.02306853
0.02392943
0.02759312
0.06718763
0.01786029
0.0179008
0.01818095
0.0184093
0.01861578
0.01879382
0.01894617
0.0190786
0.01919614
0.01930264
0.01940103
0.01949353
0.01958188
0.01966743
0.0197513
0.01983431
0.01991707
0.01999994
0.02008284
0.02016524
0.02024622
0.02032405
0.02039661
0.02046138
0.02051621
0.02056011
0.02059395
0.02062002
0.02064126
0.02066066
0.02068089
0.02070417
0.02073238
0.020767
0.02080946
0.02086102
0.02092312
0.02099735
0.02108573
0.0211906
0.02131526
0.02146424
0.02164422
0.02186615
0.02215019
0.02253662
0.02310665
0.02396804
0.02762951
0.06717261
0.01786133
0.01790232
0.01818314
0.01841224
0.0186195
0.01879831
0.01895141
0.01908457
0.0192028
0.01930995
0.01940894
0.01950199
0.01959083
0.01967683
0.01976105
0.01984432
0.01992726
0.02001024
0.02009317
0.0201755
0.02025635
0.02033405
0.02040655
0.0204714
0.02052653
0.02057099
0.02060562
0.02063267
0.02065502
0.02067557
0.02069689
0.02072124
0.02075046
0.02078602
0.02082937
0.02088176
0.02094465
0.02101963
0.0211087
0.02121425
0.02133956
0.02148917
0.02166976
0.02189229
0.02217694
0.02256402
0.02313479
0.02399658
0.02765644
0.06716159
0.01786198
0.01790326
0.01818449
0.01841404
0.01862175
0.01880101
0.01895453
0.01908806
0.01920661
0.01931403
0.01941322
0.01950639
0.01959524
0.01968113
0.01976511
0.019848
0.01993038
0.02001258
0.02009457
0.02017583
0.02025548
0.020332
0.02040346
0.02046762
0.02052259
0.02056751
0.02060318
0.0206317
0.02065576
0.0206781
0.02070121
0.02072723
0.02075798
0.02079494
0.02083949
0.02089298
0.02095684
0.02103269
0.02112251
0.02122876
0.02135472
0.02150491
0.02168603
0.02190907
0.02219421
0.02258179
0.02315311
0.02401519
0.02767406
0.06715443
0.01786224
0.01790363
0.018185
0.01841471
0.01862257
0.01880195
0.01895554
0.0190891
0.01920762
0.01931494
0.01941393
0.01950679
0.0195952
0.01968049
0.01976367
0.01984555
0.01992671
0.02000739
0.0200876
0.02016692
0.02024445
0.02031889
0.02038849
0.0204513
0.02050569
0.02055094
0.02058779
0.0206181
0.02064435
0.02066898
0.02069438
0.02072255
0.02075525
0.02079394
0.02083999
0.02089479
0.02095978
0.02103659
0.02112723
0.02123419
0.02136077
0.02151149
0.02169309
0.02191654
0.02220205
0.02258998
0.02316164
0.02402394
0.02768241
0.06715103
0.01786212
0.01790344
0.01818471
0.01841428
0.01862197
0.01880114
0.01895449
0.01908774
0.01920589
0.01931275
0.01941117
0.01950333
0.01959088
0.01967512
0.01975704
0.0198374
0.01991676
0.01999534
0.02007313
0.02014981
0.02022456
0.02029626
0.02036341
0.02042438
0.02047786
0.02052328
0.02056132
0.02059359
0.02062222
0.02064945
0.0206774
0.02070801
0.02074288
0.02078349
0.02083123
0.02088745
0.02095364
0.02103146
0.02112293
0.02123058
0.02135775
0.02150893
0.0216909
0.02191466
0.02220041
0.02258853
0.02316031
0.0240227
0.02768131
0.06715147
0.01786163
0.0179027
0.01818361
0.01841275
0.01861998
0.01879863
0.01895141
0.01908405
0.0192015
0.01930756
0.01940508
0.01949619
0.01958253
0.01966535
0.01974561
0.01982404
0.01990114
0.01997716
0.02005211
0.02012568
0.0201972
0.02026573
0.02033009
0.02038891
0.02044122
0.02048664
0.02052575
0.02055992
0.02059096
0.02062085
0.02065142
0.02068456
0.02072169
0.02076428
0.02081375
0.02087141
0.02093878
0.0210176
0.02110986
0.02121812
0.02134578
0.02149733
0.02167958
0.02190352
0.02218937
0.02257749
0.02314919
0.02401154
0.0276708
0.06715572
0.01786077
0.01790141
0.01818172
0.01841016
0.01861661
0.01879445
0.01894637
0.01907807
0.01919452
0.01929949
0.0193958
0.01948555
0.01957036
0.01965144
0.01972974
0.0198059
0.01988044
0.01995361
0.02002544
0.02009564
0.02016372
0.02022891
0.02029028
0.02034682
0.0203978
0.02044302
0.02048298
0.02051882
0.02055207
0.02058443
0.02061755
0.02065307
0.0206924
0.02073692
0.02078802
0.02084708
0.02091557
0.0209953
0.02108825
0.02119705
0.02132508
0.02147689
0.02165928
0.02188327
0.02216907
0.02255703
0.02312841
0.02399063
0.02765114
0.06716369
0.01785953
0.01789958
0.01817903
0.01840649
0.01861189
0.01878862
0.01893937
0.01906986
0.01918502
0.01928861
0.01938343
0.01947155
0.01955456
0.01963364
0.01970972
0.01978341
0.0198552
0.01992536
0.0199939
0.02006063
0.02012523
0.02018707
0.02024542
0.02029962
0.02034918
0.02039399
0.0204345
0.02047168
0.0205068
0.02054131
0.02057668
0.02061433
0.02065564
0.02070193
0.02075451
0.0208148
0.02088431
0.02096477
0.02105828
0.0211675
0.02129575
0.02144767
0.02163006
0.02185394
0.02213953
0.02252713
0.02309798
0.02395996
0.02762231
0.06717549
0.01785791
0.01789719
0.01817554
0.01840174
0.01860579
0.01878112
0.01893043
0.01905942
0.01917302
0.01927496
0.01936804
0.0194543
0.01953528
0.01961216
0.01968581
0.01975688
0.0198258
0.01989284
0.01995807
0.02002139
0.02008255
0.02014109
0.02019655
0.02024845
0.02029648
0.02034066
0.02038143
0.02041956
0.02045612
0.02049237
0.02052959
0.02056904
0.020612
0.02065977
0.02071361
0.02077489
0.02084518
0.02092621
0.02102011
0.02112954
0.02125784
0.0214097
0.0215919
0.0218155
0.02210068
0.02248773
0.0230578
0.02391942
0.0275842
0.06719123
0.0178559
0.01789422
0.01817123
0.01839588
0.01859829
0.01877193
0.01891952
0.01904674
0.01915851
0.01925857
0.01934966
0.01943383
0.0195126
0.01958712
0.01965823
0.01972656
0.01979253
0.01985646
0.01991844
0.01997842
0.02003627
0.02009166
0.02014431
0.02019395
0.0202404
0.02028375
0.02032441
0.02036308
0.02040065
0.02043814
0.02047676
0.02051764
0.02056187
0.02061076
0.02066554
0.02072757
0.02079838
0.02087972
0.02097379
0.02108318
0.02121133
0.02136291
0.02154473
0.02176782
0.02205239
0.02243864
0.02300768
0.02386879
0.0275366
0.06721104
0.01785347
0.01789065
0.01816604
0.01838886
0.01858934
0.018761
0.01890658
0.01903176
0.01914146
0.0192394
0.0193283
0.01941021
0.0194866
0.01955859
0.01962704
0.01969255
0.01975559
0.01981642
0.0198752
0.01993197
0.01998663
0.02003904
0.020089
0.02013643
0.02018124
0.02022357
0.02026382
0.02030262
0.02034071
0.02037898
0.02041853
0.02046031
0.02050544
0.02055508
0.02061046
0.0206729
0.02074392
0.02082532
0.02091927
0.02102839
0.02115613
0.02130718
0.02148837
0.02171072
0.02199442
0.02237962
0.02294733
0.02380778
0.02747919
0.06723508
0.01785058
0.01788642
0.01815993
0.01838061
0.01857885
0.01874824
0.01889153
0.01901441
0.01912179
0.01921738
0.01930389
0.01938333
0.01945718
0.01952655
0.01959227
0.01965495
0.01971502
0.0197728
0.01982846
0.01988211
0.01993373
0.01998328
0.02003067
0.02007589
0.02011897
0.02016011
0.02019968
0.02023823
0.02027642
0.02031503
0.02035504
0.02039729
0.02044287
0.02049287
0.02054845
0.02061093
0.02068185
0.02076299
0.0208565
0.02096505
0.02109209
0.02124232
0.02142258
0.02164391
0.02192645
0.0223103
0.02287635
0.02373596
0.02741156
0.06726357
0.01784718
0.01788146
0.0181528
0.01837102
0.01856671
0.01873352
0.01887423
0.01899455
0.01909937
0.01919239
0.01927631
0.01935313
0.01942431
0.01949094
0.01955384
0.01961363
0.01967075
0.01972552
0.01977815
0.01982879
0.0198775
0.01992428
0.01996916
0.02001218
0.02005347
0.02009326
0.02013188
0.02016981
0.02020767
0.0202462
0.0202862
0.02032853
0.02037412
0.02042405
0.02047943
0.0205416
0.02061206
0.02069258
0.02078532
0.02089295
0.02101896
0.02116804
0.02134704
0.02156701
0.02184806
0.0222302
0.02279421
0.02365276
0.02733316
0.06729678
0.0178432
0.01787569
0.01814454
0.01835995
0.01855275
0.01871665
0.0188545
0.01897198
0.019074
0.01916424
0.01924538
0.01931941
0.01938778
0.01945158
0.0195116
0.01956845
0.01962261
0.0196744
0.01972407
0.01977176
0.01981764
0.01986173
0.01990413
0.01994497
0.01998439
0.02002264
0.02006007
0.02009711
0.02013428
0.02017231
0.0202119
0.02025386
0.02029903
0.02034847
0.02040329
0.02046477
0.02053437
0.02061389
0.02070548
0.02081182
0.02093641
0.02108395
0.0212613
0.02147951
0.02175866
0.02213868
0.02270022
0.02355743
0.02724325
0.0673351
0.01783852
0.01786896
0.01813496
0.0183472
0.01853673
0.0186974
0.01883207
0.01894645
0.01904542
0.01913266
0.01921083
0.01928191
0.01934733
0.01940818
0.01946523
0.01951912
0.01957031
0.01961913
0.01966588
0.0197107
0.01975376
0.01979521
0.01983516
0.01987379
0.01991126
0.01994781
0.01998379
0.02001965
0.02005585
0.02009303
0.0201318
0.02017296
0.02021734
0.02026592
0.02031977
0.02038013
0.02044848
0.0205266
0.02061662
0.02072125
0.02084398
0.02098952
0.02116477
0.02138074
0.02165751
0.02203491
0.02259346
0.02344901
0.02714087
0.06737901
0.017833
0.01786108
0.01812384
0.01833247
0.01851834
0.01867542
0.01880659
0.01891758
0.01901325
0.01909726
0.01917228
0.01924024
0.01930258
0.01936037
0.01941439
0.01946525
0.01951343
0.01955928
0.0196031
0.01964507
0.01968539
0.01972425
0.01976176
0.0197981
0.01983349
0.01986822
0.01990259
0.01993698
0.01997187
0.02000782
0.02004545
0.02008545
0.02012867
0.02017599
0.02022846
0.0202873
0.02035399
0.02043027
0.02051828
0.02062072
0.02074108
0.02088411
0.02105669
0.02126986
0.02154366
0.02191782
0.02247274
0.02332622
0.02702477
0.06742917
0.01782642
0.01785178
0.01811083
0.01831538
0.01849715
0.01865024
0.01877758
0.01888488
0.01897699
0.01905755
0.01912921
0.01919389
0.019253
0.01930761
0.0193585
0.01940629
0.01945143
0.01949429
0.01953515
0.01957427
0.01961185
0.01964808
0.0196831
0.01971712
0.01975037
0.01978311
0.01981565
0.01984835
0.01988169
0.01991612
0.01995227
0.01999081
0.02003247
0.02007813
0.02012883
0.02018575
0.02025033
0.02032431
0.02040981
0.02050953
0.02062697
0.02076686
0.02093612
0.02114579
0.02141588
0.02178603
0.02233652
0.02318738
0.02689328
0.06748645
0.01781848
0.01784068
0.01809547
0.01829537
0.01847255
0.01862122
0.01874436
0.01884766
0.01893594
0.01901282
0.01908091
0.01914213
0.01919787
0.01924918
0.01929684
0.01934146
0.0193835
0.01942333
0.01946126
0.01949752
0.01953231
0.01956586
0.01959835
0.01962999
0.01966099
0.0196916
0.01972214
0.01975296
0.01978449
0.01981716
0.01985153
0.01988823
0.01992799
0.01997164
0.02002017
0.02007475
0.02013677
0.02020795
0.0202904
0.0203868
0.02050065
0.02063669
0.02080183
0.02100714
0.02127259
0.02163775
0.02218278
0.02303031
0.0267442
0.06755205
0.0178088
0.01782727
0.0180771
0.01827169
0.01844369
0.01858748
0.01870602
0.01880499
0.01888917
0.01896212
0.01902643
0.019084
0.01913621
0.01918408
0.0192284
0.01926977
0.01930864
0.01934539
0.01938031
0.01941367
0.01944568
0.01947655
0.01950646
0.01953562
0.01956425
0.01959263
0.01962103
0.01964976
0.01967922
0.01970985
0.01974216
0.01977674
0.01981427
0.01985555
0.01990153
0.01995333
0.02001232
0.02008017
0.02015898
0.0202514
0.0203609
0.02049223
0.0206523
0.02085217
0.0211118
0.02147068
0.0220089
0.02285209
0.02657457
0.0676276
0.01779701
0.01781092
0.01805485
0.01824327
0.01840941
0.01854778
0.01866132
0.01875562
0.01883539
0.01890415
0.01896445
0.01901817
0.01906667
0.01911097
0.01915183
0.01918983
0.01922545
0.01925905
0.01929093
0.01932134
0.01935049
0.01937861
0.01940588
0.0194325
0.01945869
0.0194847
0.01951078
0.01953726
0.01956447
0.01959284
0.01962284
0.01965501
0.01969
0.01972856
0.0197716
0.01982019
0.01987565
0.01993962
0.02001415
0.02010184
0.02020613
0.02033175
0.02048558
0.02067867
0.02093097
0.02128187
0.02181144
0.02264884
0.02638038
0.06771542
0.01778312
0.01779105
0.0180276
0.01820868
0.01836811
0.01850046
0.01860853
0.01869777
0.01877282
0.0188371
0.01889315
0.01894281
0.01898741
0.01902797
0.01906523
0.01909977
0.01913205
0.01916242
0.01919118
0.01921859
0.01924484
0.01927016
0.01929472
0.01931872
0.01934237
0.0193659
0.01938955
0.0194136
0.01943839
0.01946429
0.01949174
0.01952124
0.01955339
0.01958889
0.0196286
0.01967355
0.01972499
0.01978449
0.01985404
0.01993618
0.02003429
0.02015302
0.02029922
0.02048387
0.02072688
0.02106752
0.02158591
0.02241538
0.02615612
0.06781885
0.01776979
0.01776789
0.01799413
0.01816599
0.01831761
0.01844321
0.01854527
0.01862904
0.01869899
0.01875849
0.01881001
0.01885535
0.01889586
0.0189325
0.01896602
0.01899697
0.01902581
0.01905288
0.01907846
0.0191028
0.0191261
0.01914856
0.01917035
0.01919166
0.01921269
0.01923364
0.01925473
0.01927623
0.01929843
0.01932168
0.01934636
0.01937295
0.01940198
0.01943411
0.01947013
0.01951101
0.01955791
0.01961234
0.01967618
0.01975188
0.01984272
0.01995322
0.02009013
0.0202643
0.02049549
0.02082282
0.02132646
0.02214475
0.02589413
0.06794286
0.01778052
0.01774665
0.01795376
0.01811285
0.01825499
0.01837291
0.01846833
0.01854609
0.01861051
0.01866485
0.01871151
0.01875229
0.01878846
0.018821
0.01885063
0.01887787
0.01890317
0.01892686
0.01894919
0.01897041
0.0189907
0.01901025
0.01902922
0.01904778
0.01906611
0.01908439
0.01910283
0.01912166
0.01914113
0.01916156
0.0191833
0.01920676
0.01923242
0.01926089
0.01929288
0.01932927
0.01937115
0.0194199
0.01947729
0.01954562
0.019628
0.01972879
0.01985448
0.02001572
0.02023191
0.02054185
0.02102567
0.02182769
0.02558366
0.06809523
0.01806201
0.01776341
0.01790915
0.01804666
0.01817661
0.01828556
0.01837344
0.01844451
0.01850283
0.01855154
0.01859297
0.01862886
0.01866046
0.0186887
0.01871428
0.0187377
0.01875936
0.01877958
0.01879862
0.01881666
0.01883391
0.01885051
0.01886662
0.01888239
0.01889797
0.01891352
0.01892923
0.01894529
0.01896193
0.01897941
0.01899805
0.0190182
0.01904029
0.01906484
0.0190925
0.01912403
0.01916042
0.01920292
0.01925313
0.01931316
0.01938588
0.01947535
0.01958773
0.01973317
0.01993049
0.02021769
0.02067457
0.02145228
0.02520967
0.06828884
0.02167522
0.01801114
0.01787221
0.01796593
0.01807919
0.01817693
0.01825579
0.0183191
0.01837054
0.01841303
0.01844879
0.01847945
0.01850623
0.01852999
0.01855137
0.01857086
0.01858882
0.01860554
0.01862123
0.01863609
0.01865026
0.0186639
0.01867714
0.01869009
0.0187029
0.01871569
0.01872862
0.01874186
0.0187556
0.01877005
0.01878549
0.0188022
0.01882055
0.018841
0.01886407
0.01889045
0.01892097
0.01895672
0.0189991
0.01904997
0.01911189
0.0191885
0.0192854
0.01941198
0.01958597
0.01984384
0.02026408
0.02100493
0.02475235
0.06854619
0.02206963
0.01806583
0.01781835
0.01787451
0.0179661
0.01804711
0.01811372
0.01816745
0.0182109
0.01824647
0.01827609
0.01830122
0.01832296
0.0183421
0.01835921
0.01837473
0.01838897
0.01840218
0.01841455
0.01842624
0.01843738
0.01844809
0.01845848
0.01846865
0.0184787
0.01848875
0.01849892
0.01850934
0.01852017
0.01853157
0.01854377
0.01855699
0.01857154
0.01858778
0.01860614
0.01862718
0.01865159
0.01868026
0.01871436
0.01875545
0.01880567
0.01886814
0.0189477
0.0190526
0.01919879
0.01942007
0.01979178
0.02047703
0.02418644
0.06890723
0.02222828
0.01814256
0.01780568
0.01781844
0.01787246
0.01790962
0.01795457
0.01799538
0.01802945
0.01805744
0.0180806
0.01810006
0.01811672
0.01813126
0.01814417
0.0181558
0.01816642
0.01817625
0.01818542
0.01819407
0.01820231
0.01821022
0.01821789
0.01822539
0.01823281
0.01824023
0.01824774
0.01825545
0.01826346
0.01827191
0.01828096
0.01829078
0.01830161
0.01831372
0.01832743
0.01834318
0.01836151
0.01838309
0.01840885
0.01844
0.01847823
0.01852603
0.01858729
0.01866883
0.01878415
0.01896328
0.0192766
0.01988536
0.02350452
0.06945327
0.02035961
0.01851946
0.01814259
0.01806595
0.01801137
0.01776382
0.01774731
0.01776887
0.01779246
0.01781286
0.01782984
0.01784402
0.01785603
0.01786639
0.01787551
0.01788367
0.01789108
0.0178979
0.01790425
0.01791022
0.0179159
0.01792134
0.01792661
0.01793177
0.01793688
0.01794198
0.01794715
0.01795245
0.01795797
0.0179638
0.01797005
0.01797685
0.01798435
0.01799275
0.01800229
0.01801328
0.0180261
0.01804125
0.0180594
0.01808144
0.01810862
0.0181428
0.01818692
0.01824632
0.01833211
0.01847139
0.01873607
0.0193527
0.02327146
0.07053723
0.02606734
0.02035962
0.02222832
0.02206971
0.02167533
0.01806235
0.01778103
0.01777053
0.01778416
0.01779842
0.01781065
0.01782085
0.01782942
0.01783673
0.01784309
0.01784874
0.01785384
0.01785851
0.01786284
0.0178669
0.01787075
0.01787444
0.01787801
0.0178815
0.01788495
0.0178884
0.0178919
0.01789548
0.01789922
0.01790316
0.01790739
0.017912
0.0179171
0.01792281
0.01792932
0.01793683
0.01794562
0.01795604
0.01796857
0.01798386
0.01800283
0.01802686
0.01805823
0.01810127
0.01816579
0.01827697
0.01853351
0.01958635
0.02616204
0.07137141
0.02114548
0.01805719
0.01792341
0.0165418
0.01613369
0.01592819
0.01582886
0.01580653
0.01581445
0.01582839
0.01584122
0.0158519
0.01586078
0.01586834
0.01587493
0.0158808
0.01588614
0.01589104
0.01589561
0.0158999
0.01590395
0.0159078
0.01591147
0.01591501
0.01591843
0.01592178
0.01592509
0.01592842
0.01593182
0.01593536
0.01593912
0.0159432
0.01594772
0.01595282
0.01595867
0.01596548
0.01597353
0.01598317
0.01599486
0.01600924
0.01602721
0.01605012
0.01608026
0.01612223
0.01618774
0.0163142
0.01665731
0.01801071
0.02477482
0.07439983
0.01876518
0.01692322
0.01638413
0.01601062
0.01591376
0.01584984
0.01582545
0.01583423
0.01585444
0.01587451
0.01589151
0.01590555
0.01591733
0.01592745
0.01593636
0.01594436
0.01595166
0.0159584
0.0159647
0.01597062
0.01597622
0.01598155
0.01598664
0.01599152
0.01599626
0.01600088
0.01600544
0.01601002
0.0160147
0.01601956
0.01602472
0.01603032
0.01603651
0.01604348
0.01605148
0.01606077
0.01607174
0.01608484
0.01610069
0.01612011
0.01614427
0.01617486
0.01621465
0.01626884
0.01634935
0.01649007
0.01680967
0.01786622
0.02338312
0.07188724
0.01765116
0.01638913
0.01594652
0.01587883
0.01591244
0.0159459
0.01598037
0.01601623
0.01604883
0.01607618
0.01609868
0.0161174
0.01613332
0.0161472
0.01615953
0.01617071
0.01618097
0.01619049
0.01619941
0.01620782
0.01621578
0.01622336
0.0162306
0.01623755
0.01624426
0.01625081
0.01625726
0.01626371
0.01627028
0.0162771
0.01628433
0.01629216
0.01630081
0.01631054
0.01632167
0.0163346
0.01634981
0.01636793
0.01638979
0.01641647
0.0164495
0.01649109
0.01654473
0.01661673
0.01672042
0.01689019
0.0172364
0.01826599
0.02355754
0.06957946
0.01649418
0.01600211
0.01587212
0.01591267
0.01599438
0.01606938
0.01613189
0.01618331
0.01622518
0.01625928
0.01628742
0.01631115
0.01633162
0.01634966
0.01636586
0.01638062
0.01639426
0.01640698
0.01641892
0.0164302
0.0164409