/*--------------------------------*- C++ -*----------------------------------*\
| =========                 |                                                 |
| \\      /  F ield         | OpenFOAM: The Open Source CFD Toolbox           |
|  \\    /   O peration     | Version:  2506                                  |
|   \\  /    A nd           | Website:  www.openfoam.com                      |
|    \\/     M anipulation  |                                                 |
\*---------------------------------------------------------------------------*/
FoamFile
{
    version     2.0;
    format      ascii;
    arch        "LSB;label=32;scalar=64";
    class       volScalarField;
    location    "90/airRegion";
    object      k;
}
// * * * * * * * * * * * * * * * * * * * * * * * * * * * * * * * * * * * * * //

dimensions      [0 2 -2 0 0 0 0];

internalField   nonuniform List<scalar> 
260661
(
0.1659955
0.1478267
0.1529304
0.1429847
0.1410622
0.140941
0.1408722
0.1408777
0.1409333
0.1409964
0.1410511
0.141096
0.1411331
0.1411646
0.1411919
0.1412163
0.1412383
0.1412585
0.1412774
0.141295
0.1413117
0.1413275
0.1413426
0.1413572
0.1413713
0.1413851
0.1413987
0.1414125
0.1414265
0.1414411
0.1414567
0.1414736
0.1414923
0.1415134
0.1415376
0.1415658
0.1415991
0.1416389
0.141687
0.1417459
0.1418189
0.1419104
0.142026
0.1421711
0.1423441
0.1424917
0.142397
0.1419693
0.1447208
0.1082238
0.151462
0.1433498
0.1425335
0.1408039
0.1406447
0.1407184
0.1407855
0.1408784
0.1409802
0.1410711
0.1411464
0.1412083
0.1412602
0.1413048
0.1413441
0.1413793
0.1414115
0.1414412
0.1414689
0.1414949
0.1415196
0.141543
0.1415654
0.1415869
0.1416077
0.141628
0.1416481
0.1416683
0.1416889
0.1417103
0.1417331
0.1417578
0.1417851
0.1418158
0.141851
0.1418919
0.14194
0.1419974
0.1420665
0.1421509
0.142255
0.1423849
0.1425486
0.1427552
0.1430081
0.1432691
0.1432609
0.1414821
0.1360813
0.1075026
0.1473541
0.1421848
0.1407726
0.1408146
0.1411399
0.1414064
0.1416142
0.1417911
0.1419398
0.1420618
0.1421617
0.1422449
0.1423158
0.1423776
0.1424326
0.1424823
0.1425281
0.1425705
0.1426102
0.1426476
0.1426831
0.1427168
0.142749
0.14278
0.1428099
0.142839
0.1428677
0.1428965
0.1429257
0.1429561
0.1429884
0.1430233
0.1430618
0.1431052
0.1431547
0.1432121
0.1432796
0.1433597
0.143456
0.1435731
0.1437169
0.1438956
0.1441203
0.1444044
0.1447576
0.1451471
0.1452827
0.1433983
0.1367547
0.1063423
0.1427693
0.140928
0.1408299
0.141172
0.1415983
0.1419611
0.1422495
0.1424802
0.1426659
0.1428169
0.1429418
0.1430473
0.1431385
0.143219
0.1432912
0.1433571
0.143418
0.1434747
0.1435279
0.1435782
0.1436259
0.1436713
0.1437146
0.1437561
0.1437962
0.1438351
0.1438734
0.1439116
0.1439505
0.1439907
0.1440333
0.1440793
0.14413
0.144187
0.1442521
0.1443274
0.1444156
0.1445202
0.1446455
0.1447973
0.144983
0.1452129
0.1455008
0.1458639
0.1463176
0.1468347
0.1471261
0.1453991
0.1387776
0.1057625
0.1414883
0.1408038
0.1411538
0.141594
0.142074
0.1424887
0.1428214
0.1430871
0.1433016
0.143478
0.143626
0.1437529
0.1438638
0.1439628
0.1440523
0.1441346
0.1442109
0.1442823
0.1443495
0.1444132
0.1444736
0.1445311
0.1445859
0.1446384
0.1446889
0.1447379
0.144786
0.1448337
0.144882
0.144932
0.1449847
0.1450417
0.1451044
0.1451748
0.1452549
0.1453476
0.145456
0.1455842
0.1457373
0.1459221
0.1461474
0.1464249
0.1467704
0.1472038
0.1477434
0.148364
0.1487719
0.1471328
0.1404148
0.1053853
0.1411337
0.1407775
0.1414059
0.141954
0.1424854
0.1429345
0.1432961
0.1435874
0.1438257
0.1440243
0.1441933
0.1443401
0.1444698
0.1445865
0.144693
0.1447914
0.1448832
0.1449694
0.1450508
0.145128
0.1452013
0.1452711
0.1453377
0.1454013
0.1454623
0.1455212
0.1455786
0.1456356
0.145693
0.1457522
0.1458146
0.1458817
0.1459556
0.1460384
0.1461327
0.1462415
0.1463685
0.1465184
0.146697
0.1469117
0.1471722
0.1474915
0.1478864
0.1483783
0.1489862
0.1496843
0.1501712
0.1485718
0.1417167
0.1051183
0.1409098
0.1407913
0.1416069
0.1422419
0.1428158
0.1432928
0.143678
0.1439912
0.1442504
0.1444691
0.1446573
0.1448225
0.1449701
0.1451039
0.1452268
0.145341
0.1454481
0.145549
0.1456446
0.1457355
0.145822
0.1459042
0.1459826
0.1460572
0.1461285
0.1461971
0.1462637
0.1463292
0.1463951
0.1464627
0.1465337
0.1466101
0.146694
0.1467881
0.146895
0.1470184
0.1471622
0.1473315
0.1475325
0.1477734
0.1480644
0.148419
0.1488549
0.1493936
0.1500538
0.1508075
0.1513455
0.1497586
0.1427686
0.1049182
0.1408759
0.1408709
0.1417817
0.1424705
0.1430779
0.1435796
0.1439863
0.1443196
0.1445979
0.1448351
0.1450413
0.1452239
0.1453883
0.1455385
0.1456774
0.1458072
0.1459293
0.146045
0.146155
0.1462597
0.1463594
0.1464543
0.1465445
0.1466301
0.1467116
0.1467894
0.1468645
0.146938
0.1470114
0.1470864
0.147165
0.1472495
0.1473422
0.147446
0.1475641
0.1477001
0.1478585
0.1480447
0.1482652
0.1485285
0.1488451
0.149229
0.1496978
0.150273
0.1509724
0.151765
0.1523352
0.1507461
0.1436326
0.1047611
0.1409266
0.1409708
0.1419281
0.1426524
0.1432871
0.1438116
0.1442386
0.1445907
0.144887
0.1451415
0.1453646
0.1455637
0.1457442
0.1459102
0.1460647
0.1462097
0.1463469
0.1464773
0.1466017
0.1467204
0.1468336
0.1469412
0.1470433
0.1471399
0.1472312
0.1473179
0.147401
0.1474817
0.1475616
0.1476429
0.1477278
0.147819
0.147919
0.148031
0.1481585
0.1483053
0.1484762
0.1486767
0.1489137
0.1491957
0.1495335
0.1499411
0.150436
0.1510392
0.1517673
0.1525868
0.1531767
0.151578
0.1443548
0.1046336
0.140988
0.1410593
0.1420462
0.1427978
0.1434565
0.144002
0.144448
0.1448179
0.1451311
0.1454021
0.1456412
0.145856
0.146052
0.1462333
0.1464029
0.146563
0.1467152
0.1468605
0.1469995
0.1471325
0.1472594
0.1473801
0.1474943
0.1476019
0.147703
0.147798
0.1478881
0.1479748
0.1480601
0.1481465
0.1482363
0.1483327
0.1484384
0.148557
0.1486922
0.1488479
0.1490291
0.1492415
0.1494921
0.1497895
0.1501445
0.150571
0.1510863
0.1517106
0.1524596
0.1532974
0.1538989
0.1522871
0.1449676
0.1045274
0.1410402
0.1411309
0.1421408
0.1429156
0.1435956
0.1441605
0.1446244
0.145011
0.1453403
0.1456268
0.1458811
0.1461109
0.1463218
0.1465179
0.1467023
0.1468774
0.1470446
0.1472048
0.1473586
0.1475063
0.1476473
0.1477813
0.1479079
0.1480266
0.1481371
0.14824
0.1483364
0.1484283
0.1485176
0.1486074
0.1487006
0.1488006
0.1489105
0.1490339
0.1491749
0.1493377
0.1495272
0.1497492
0.1500109
0.1503207
0.1506894
0.1511308
0.1516617
0.1523019
0.1530659
0.1539161
0.1545239
0.1528979
0.1454941
0.1044373
0.141082
0.1411883
0.1422175
0.1430125
0.1437116
0.1442943
0.1447748
0.1451771
0.1455215
0.1458226
0.1460914
0.1463355
0.1465607
0.1467713
0.1469703
0.1471601
0.1473422
0.1475175
0.1476866
0.1478492
0.1480048
0.1481528
0.1482921
0.1484217
0.1485415
0.1486517
0.1487535
0.148849
0.148941
0.1490329
0.1491278
0.1492297
0.149342
0.1494687
0.1496138
0.1497819
0.1499778
0.1502074
0.1504778
0.1507974
0.1511769
0.1516298
0.1521727
0.1528247
0.1535992
0.1544576
0.1550684
0.1534282
0.1459505
0.1043599
0.1411154
0.1412348
0.1422806
0.1430933
0.1438096
0.1444085
0.1449042
0.1453212
0.1456797
0.1459946
0.146277
0.1465348
0.1467737
0.1469981
0.1472115
0.1474159
0.1476128
0.1478034
0.1479879
0.148166
0.1483368
0.1484992
0.1486515
0.1487924
0.1489213
0.149038
0.1491442
0.1492422
0.1493353
0.1494273
0.1495223
0.1496245
0.1497377
0.149866
0.1500137
0.1501853
0.150386
0.1506213
0.1508984
0.1512257
0.1516136
0.1520753
0.1526271
0.1532877
0.1540698
0.1549333
0.1555451
0.1538913
0.1463488
0.1042929
0.1411426
0.1412731
0.1423333
0.1431616
0.1438931
0.1445067
0.1450164
0.1454469
0.1458185
0.1461463
0.1464416
0.1467122
0.1469642
0.1472021
0.1474292
0.1476478
0.1478596
0.1480656
0.1482657
0.1484597
0.1486461
0.1488233
0.1489891
0.1491415
0.1492792
0.149402
0.1495114
0.1496104
0.149703
0.1497937
0.1498872
0.149988
0.1501005
0.1502289
0.1503777
0.1505515
0.1507553
0.1509948
0.1512769
0.15161
0.1520043
0.1524727
0.1530313
0.1536982
0.1544855
0.1553522
0.1559635
0.154297
0.1466977
0.1042344
0.1411651
0.1413052
0.1423779
0.1432197
0.1439649
0.1445916
0.145114
0.1455568
0.1459405
0.1462803
0.1465874
0.1468701
0.1471345
0.1473852
0.1476255
0.147858
0.1480843
0.1483054
0.1485214
0.1487313
0.1489338
0.1491263
0.1493059
0.14947
0.1496163
0.1497444
0.149856
0.1499547
0.1500452
0.150133
0.1502234
0.1503213
0.1504318
0.1505591
0.1507079
0.1508827
0.1510883
0.1513308
0.1516166
0.1519539
0.152353
0.1528264
0.15339
0.1540614
0.1548523
0.1557208
0.156331
0.1546528
0.1470036
0.1041833
0.1411839
0.1413321
0.1424157
0.1432695
0.1440266
0.144665
0.1451989
0.1456528
0.1460475
0.1463982
0.1467164
0.1470102
0.1472861
0.1475487
0.1478015
0.1480472
0.1482876
0.1485235
0.1487549
0.1489809
0.1491994
0.1494074
0.149601
0.1497767
0.1499313
0.150064
0.1501768
0.1502738
0.150361
0.1504447
0.1505308
0.1506248
0.1507323
0.1508576
0.1510054
0.1511801
0.1513868
0.1516312
0.1519195
0.15226
0.1526627
0.1531399
0.153707
0.1543817
0.155175
0.1560444
0.1566529
0.1549643
0.1472715
0.1041387
0.1411997
0.141355
0.1424479
0.143312
0.1440796
0.1447284
0.1452724
0.1457363
0.1461408
0.1465014
0.1468295
0.1471335
0.1474199
0.1476934
0.1479578
0.1482157
0.1484693
0.1487192
0.1489655
0.1492069
0.1494411
0.1496643
0.1498717
0.1500588
0.1502213
0.150358
0.150471
0.1505655
0.1506485
0.1507272
0.1508083
0.1508978
0.1510016
0.1511243
0.1512704
0.1514446
0.1516518
0.1518972
0.1521875
0.1525303
0.1529356
0.1534156
0.1539854
0.1546624
0.1554573
0.156327
0.1569338
0.1552358
0.1475051
0.1040999
0.1412129
0.1413743
0.1424752
0.1433483
0.144125
0.1447828
0.1453356
0.1458083
0.1462215
0.1465907
0.1469275
0.1472405
0.1475362
0.1478195
0.1480943
0.1483633
0.1486289
0.1488915
0.1491514
0.1494072
0.1496559
0.1498933
0.1501137
0.1503114
0.1504812
0.1506213
0.1507341
0.1508258
0.1509041
0.1509776
0.1510535
0.1511386
0.1512387
0.1513587
0.1515031
0.1516767
0.1518839
0.15213
0.1524217
0.1527663
0.1531736
0.1536556
0.1542275
0.1549062
0.155702
0.1565718
0.1571767
0.1554706
0.1477072
0.1040665
0.141224
0.1413904
0.1424982
0.1433788
0.1441633
0.1448287
0.1453892
0.1458694
0.14629
0.1466667
0.1470111
0.1473318
0.1476355
0.1479271
0.1482108
0.1484894
0.1487651
0.1490387
0.1493104
0.1495786
0.14984
0.1500899
0.1503218
0.1505289
0.1507051
0.150848
0.1509605
0.1510495
0.1511238
0.1511927
0.1512642
0.1513455
0.1514424
0.1515601
0.1517031
0.1518761
0.1520833
0.1523302
0.1526229
0.152969
0.1533779
0.1538617
0.1544351
0.1551151
0.1559116
0.1567811
0.1573845
0.1556713
0.14788
0.104038
0.1412332
0.1414037
0.1425172
0.1434041
0.144195
0.1448669
0.1454338
0.1459202
0.146347
0.1467299
0.1470805
0.1474075
0.1477177
0.1480162
0.148307
0.1485931
0.1488769
0.1491594
0.1494405
0.1497184
0.1499899
0.1502497
0.1504908
0.1507054
0.1508869
0.1510323
0.1511448
0.1512321
0.1513037
0.1513693
0.1514377
0.1515163
0.1516113
0.1517276
0.1518701
0.1520428
0.1522504
0.1524981
0.152792
0.1531395
0.1535498
0.154035
0.1546098
0.1552907
0.1560878
0.1569571
0.157559
0.1558399
0.1480252
0.1040141
0.1412405
0.1414145
0.1425324
0.1434245
0.1442206
0.1448977
0.1454696
0.145961
0.1463928
0.1467806
0.147136
0.1474679
0.147783
0.1480865
0.1483826
0.1486742
0.1489636
0.1492523
0.1495398
0.1498243
0.1501027
0.1503692
0.1506165
0.1508363
0.1510217
0.1511694
0.1512827
0.1513696
0.1514403
0.1515048
0.1515721
0.1516499
0.1517444
0.1518607
0.1520034
0.1521768
0.1523854
0.1526342
0.1529295
0.1532783
0.1536901
0.1541766
0.1547525
0.1554344
0.156232
0.1571011
0.1577018
0.1559779
0.1481442
0.1039946
0.1412462
0.1414227
0.1425442
0.1434402
0.1442403
0.1449213
0.1454971
0.1459923
0.1464277
0.146819
0.1471779
0.1475132
0.1478315
0.1481382
0.1484374
0.1487323
0.1490249
0.1493166
0.1496073
0.149895
0.1501765
0.1504461
0.1506964
0.150919
0.1511068
0.1512565
0.1513716
0.15146
0.1515319
0.1515976
0.1516662
0.1517453
0.1518412
0.1519589
0.1521032
0.1522782
0.1524884
0.1527389
0.1530358
0.1533862
0.1537994
0.1542873
0.1548644
0.1555471
0.1563452
0.1572143
0.1578141
0.1560865
0.1482379
0.1039793
0.1412502
0.1414287
0.1425527
0.1434514
0.1442543
0.1449381
0.1455165
0.1460142
0.146452
0.1468455
0.1472064
0.1475435
0.1478634
0.1481715
0.1484718
0.1487674
0.1490605
0.1493524
0.149643
0.1499302
0.1502111
0.15048
0.15073
0.1509528
0.1511414
0.151293
0.1514107
0.1515023
0.151578
0.1516475
0.1517198
0.1518024
0.1519017
0.1520225
0.1521697
0.1523472
0.1525598
0.1528125
0.1531114
0.1534636
0.1538785
0.1543678
0.1549461
0.1556297
0.1564283
0.1572975
0.1578969
0.1561666
0.1483071
0.1039681
0.1412527
0.1414323
0.1425578
0.1434582
0.1442628
0.1449481
0.145528
0.146027
0.1464659
0.1468602
0.1472217
0.1475591
0.1478791
0.1481867
0.148486
0.1487801
0.1490711
0.1493602
0.1496474
0.1499309
0.1502076
0.1504724
0.1507187
0.1509391
0.1511272
0.1512804
0.1514017
0.1514983
0.1515798
0.1516555
0.1517338
0.1518221
0.1519266
0.1520521
0.1522032
0.1523844
0.1526001
0.1528555
0.1531567
0.153511
0.1539277
0.1544185
0.154998
0.1556826
0.1564819
0.1573514
0.1579506
0.1562188
0.1483523
0.1039608
0.1412538
0.1414338
0.1425598
0.1434608
0.1442658
0.1449516
0.1455317
0.1460308
0.1464695
0.1468634
0.1472242
0.1475604
0.1478787
0.1481841
0.1484806
0.1487711
0.1490578
0.1493416
0.1496226
0.1498993
0.1501688
0.1504265
0.1506665
0.1508824
0.1510687
0.1512231
0.1513485
0.1514515
0.1515404
0.151624
0.1517102
0.1518058
0.1519169
0.1520483
0.1522045
0.1523901
0.1526096
0.1528682
0.1531721
0.1535286
0.1539472
0.1544396
0.1550204
0.155706
0.1565061
0.1573762
0.1579756
0.1562432
0.1483737
0.1039574
0.1412533
0.141433
0.1425587
0.1434591
0.1442635
0.1449485
0.1455278
0.1460257
0.1464631
0.1468553
0.1472141
0.1475478
0.147863
0.1481648
0.1484568
0.148742
0.1490224
0.1492989
0.1495716
0.1498393
0.1500993
0.1503477
0.1505795
0.1507893
0.1509727
0.1511279
0.1512576
0.1513674
0.1514647
0.1515572
0.1516522
0.1517562
0.1518748
0.1520128
0.1521748
0.1523653
0.1525889
0.152851
0.1531577
0.1535166
0.1539372
0.1544312
0.1550133
0.1557
0.156501
0.1573717
0.1579716
0.1562396
0.1483708
0.1039578
0.1412514
0.1414301
0.1425544
0.1434533
0.144256
0.1449391
0.1455163
0.146012
0.1464469
0.1468364
0.1471919
0.147522
0.1478329
0.1481297
0.1484159
0.1486944
0.148967
0.1492347
0.1494976
0.1497547
0.1500037
0.1502415
0.150464
0.1506667
0.1508464
0.151002
0.1511356
0.1512521
0.1513578
0.1514596
0.1515637
0.1516765
0.1518029
0.1519478
0.1521159
0.1523114
0.1525392
0.1528049
0.1531144
0.1534756
0.1538981
0.1543936
0.154977
0.1556647
0.1564666
0.1573381
0.1579388
0.1562083
0.1483438
0.1039622
0.141248
0.1414251
0.1425471
0.1434433
0.1442432
0.1449235
0.1454976
0.14599
0.1464213
0.1468069
0.1471582
0.1474835
0.1477891
0.1480798
0.1483593
0.1486299
0.1488937
0.1491516
0.1494038
0.1496495
0.1498868
0.1501134
0.1503259
0.1505211
0.1506966
0.1508519
0.1509888
0.1511114
0.1512249
0.1513354
0.1514484
0.1515696
0.1517037
0.1518554
0.1520293
0.1522298
0.1524617
0.1527307
0.153043
0.1534064
0.1538306
0.1543274
0.1549119
0.1556006
0.1564034
0.1572758
0.1578776
0.1561495
0.1482932
0.1039703
0.1412431
0.1414179
0.1425367
0.1434293
0.1442254
0.1449016
0.1454716
0.1459597
0.1463865
0.1467672
0.1471133
0.1474329
0.1477323
0.1480161
0.1482878
0.1485499
0.1488043
0.1490519
0.1492929
0.1495267
0.1497524
0.1499677
0.1501702
0.1503577
0.1505288
0.150683
0.1508222
0.1509497
0.15107
0.1511882
0.1513092
0.151438
0.1515792
0.1517372
0.1519164
0.1521214
0.1523572
0.1526292
0.1529438
0.1533092
0.1537348
0.1542328
0.1548182
0.1555077
0.1563113
0.1571847
0.1577879
0.1560632
0.148219
0.1039823
0.1412368
0.1414085
0.1425232
0.1434112
0.1442023
0.1448735
0.1454383
0.1459212
0.1463424
0.1467175
0.1470574
0.1473706
0.1476629
0.1479391
0.1482025
0.1484556
0.1487
0.148937
0.1491668
0.1493891
0.1496031
0.1498073
0.1500003
0.1501803
0.1503465
0.1504991
0.1506396
0.1507708
0.1508964
0.1510209
0.1511486
0.1512839
0.1514311
0.1515945
0.1517785
0.1519874
0.1522263
0.1525007
0.1528173
0.1531841
0.1536108
0.1541096
0.1546957
0.1553858
0.15619
0.1570645
0.1576693
0.155949
0.1481207
0.1039983
0.1412289
0.1413969
0.1425066
0.1433888
0.144174
0.1448391
0.1453978
0.1458743
0.1462892
0.1466576
0.1469907
0.1472966
0.1475813
0.1478493
0.1481039
0.1483476
0.148582
0.1488083
0.1490271
0.1492381
0.149441
0.1496347
0.1498183
0.149991
0.1501522
0.1503024
0.150443
0.1505764
0.150706
0.1508352
0.1509681
0.1511087
0.1512607
0.1514285
0.1516161
0.1518281
0.1520693
0.1523455
0.1526635
0.1530311
0.1534583
0.1539575
0.1545438
0.1552341
0.1560389
0.1569143
0.1575209
0.155806
0.1479977
0.1040184
0.1412193
0.1413829
0.1424865
0.1433619
0.1441401
0.1447981
0.1453496
0.145819
0.1462266
0.1465876
0.1469131
0.1472111
0.1474876
0.1477469
0.1479924
0.1482264
0.1484508
0.1486666
0.1488744
0.1490746
0.1492667
0.1494505
0.1496253
0.1497908
0.1499468
0.1500939
0.1502335
0.1503679
0.1504997
0.1506321
0.1507687
0.1509128
0.1510684
0.1512393
0.1514295
0.1516436
0.1518863
0.1521635
0.152482
0.1528497
0.1532768
0.1537757
0.1543618
0.155052
0.155857
0.1567332
0.1573418
0.1556332
0.147849
0.1040429
0.141208
0.1413663
0.1424629
0.1433304
0.1441004
0.1447502
0.1452936
0.1457549
0.1461543
0.1465071
0.1468243
0.1471138
0.1473814
0.1476317
0.1478678
0.1480922
0.1483064
0.1485118
0.1487091
0.1488987
0.1490807
0.1492549
0.1494212
0.1495795
0.14973
0.1498734
0.1500112
0.1501453
0.1502779
0.1504119
0.1505506
0.1506969
0.1508546
0.1510273
0.1512189
0.1514338
0.151677
0.1519542
0.1522723
0.1526393
0.1530656
0.1535635
0.1541486
0.1548381
0.1556429
0.1565197
0.1571303
0.1554291
0.1476734
0.1040719
0.1411946
0.1413469
0.1424353
0.1432937
0.1440544
0.144695
0.1452292
0.1456813
0.1460718
0.1464156
0.1467238
0.1470042
0.1472627
0.1475035
0.1477299
0.1479444
0.1481486
0.1483437
0.1485308
0.1487102
0.1488824
0.1490474
0.1492054
0.1493565
0.1495012
0.1496405
0.1497755
0.1499079
0.15004
0.1501742
0.1503134
0.1504606
0.1506189
0.150792
0.1509836
0.1511982
0.1514408
0.151717
0.1520336
0.152399
0.1528234
0.1533194
0.1539028
0.1545909
0.1553949
0.156272
0.1568845
0.1551917
0.1474692
0.1041057
0.1411789
0.1413242
0.1424033
0.1432513
0.1440015
0.1446316
0.1451556
0.1455977
0.1459783
0.1463124
0.1466109
0.1468816
0.1471304
0.1473615
0.147578
0.1477824
0.1479765
0.1481615
0.1483385
0.1485081
0.1486707
0.1488268
0.1489765
0.1491205
0.1492592
0.1493936
0.149525
0.1496548
0.149785
0.1499181
0.1500564
0.1502029
0.1503605
0.1505326
0.1507231
0.1509362
0.1511768
0.1514506
0.1517647
0.1521273
0.1525487
0.1530418
0.1536224
0.1543082
0.1551106
0.1559875
0.1566018
0.1549185
0.1472342
0.1041447
0.1411605
0.1412978
0.1423662
0.1432024
0.1439407
0.1445591
0.1450718
0.1455029
0.1458728
0.1461964
0.1464845
0.146745
0.1469836
0.1472045
0.1474109
0.1476051
0.147789
0.147964
0.1481311
0.1482909
0.1484441
0.1485913
0.1487329
0.1488696
0.149002
0.149131
0.1492578
0.1493841
0.1495114
0.1496421
0.1497782
0.1499226
0.150078
0.1502479
0.1504359
0.1506461
0.1508835
0.1511538
0.1514639
0.1518224
0.1522396
0.1527284
0.153305
0.1539874
0.1547872
0.1556631
0.156279
0.1546062
0.1469656
0.1041895
0.1411388
0.1412668
0.142323
0.1431459
0.1438708
0.1444762
0.1449764
0.1453955
0.1457537
0.146066
0.1463431
0.1465928
0.1468207
0.147031
0.147227
0.1474109
0.1475845
0.1477493
0.1479065
0.1480567
0.1482007
0.1483392
0.1484726
0.1486018
0.1487274
0.1488505
0.1489722
0.1490938
0.1492171
0.1493441
0.1494768
0.1496178
0.14977
0.1499363
0.1501203
0.1503263
0.1505591
0.1508244
0.1511292
0.151482
0.1518934
0.1523765
0.1529475
0.1536249
0.1544209
0.1552946
0.1559116
0.1542503
0.1466595
0.1042406
0.1411129
0.1412302
0.1422725
0.1430802
0.1437901
0.1443811
0.1448675
0.1452735
0.1456192
0.1459193
0.1461847
0.1464229
0.1466396
0.146839
0.1470241
0.1471974
0.1473607
0.1475153
0.1476624
0.1478029
0.1479376
0.1480673
0.1481925
0.1483139
0.1484325
0.148549
0.1486648
0.1487811
0.1488995
0.1490217
0.1491499
0.1492865
0.1494339
0.1495953
0.1497741
0.1499744
0.1502011
0.1504598
0.1507577
0.1511031
0.1515069
0.1519823
0.1525459
0.1532164
0.1540067
0.1548769
0.1554941
0.1538453
0.1463112
0.104299
0.1410816
0.1411866
0.1422128
0.1430032
0.1436962
0.1442713
0.1447425
0.1451343
0.1454664
0.1457535
0.1460064
0.1462325
0.1464375
0.1466254
0.1467994
0.1469618
0.1471144
0.1472587
0.1473957
0.1475265
0.1476518
0.1477724
0.1478891
0.1480026
0.1481136
0.1482232
0.1483324
0.1484426
0.1485552
0.1486718
0.1487944
0.1489251
0.1490666
0.1492218
0.149394
0.1495872
0.1498062
0.1500568
0.1503458
0.150682
0.151076
0.1515414
0.1520951
0.1527563
0.1535385
0.1544031
0.155019
0.1533836
0.1459141
0.1043659
0.1410435
0.1411339
0.1421415
0.142912
0.1435859
0.1441432
0.1445979
0.1449741
0.1452916
0.1455649
0.1458044
0.1460178
0.1462104
0.1463864
0.1465488
0.1467
0.1468416
0.1469753
0.1471021
0.1472229
0.1473387
0.1474503
0.1475582
0.1476633
0.1477665
0.1478686
0.1479708
0.148074
0.1481799
0.1482898
0.1484058
0.1485297
0.1486642
0.1488118
0.148976
0.1491606
0.1493703
0.1496107
0.1498889
0.1502135
0.1505953
0.151048
0.1515888
0.1522374
0.1530083
0.1538643
0.1544768
0.1528553
0.1454593
0.104443
0.1409971
0.1410697
0.1420549
0.1428023
0.1434546
0.1439921
0.1444286
0.1447881
0.1450898
0.1453482
0.1455736
0.1457734
0.145953
0.1461165
0.1462669
0.1464063
0.1465368
0.1466595
0.1467758
0.1468865
0.1469926
0.1470947
0.1471937
0.1472902
0.1473851
0.1474793
0.1475737
0.1476694
0.1477678
0.1478703
0.1479787
0.1480948
0.1482209
0.1483598
0.1485145
0.1486889
0.1488876
0.149116
0.1493811
0.1496915
0.150058
0.1504946
0.1510187
0.1516506
0.1524059
0.153249
0.1538548
0.1522472
0.144935
0.1045328
0.1409422
0.1409913
0.1419488
0.1426686
0.143296
0.1438112
0.1442279
0.144569
0.1448538
0.1450962
0.1453065
0.1454919
0.1456578
0.1458082
0.145946
0.1460734
0.1461921
0.1463037
0.1464092
0.1465096
0.1466056
0.1466981
0.1467878
0.1468754
0.1469616
0.1470474
0.1471335
0.1472211
0.1473114
0.1474056
0.1475055
0.1476127
0.1477295
0.1478583
0.1480022
0.1481648
0.1483505
0.1485647
0.1488142
0.1491075
0.1494554
0.1498718
0.1503745
0.1509844
0.1517181
0.1525424
0.1531361
0.1515411
0.1443247
0.1046386
0.1408902
0.1408993
0.1418178
0.1425031
0.1431013
0.1435915
0.143986
0.1443072
0.1445736
0.1447988
0.1449929
0.145163
0.1453145
0.145451
0.1455756
0.1456904
0.1457972
0.1458972
0.1459916
0.1460813
0.1461671
0.1462497
0.1463298
0.1464081
0.1464853
0.1465622
0.1466396
0.1467185
0.1468
0.1468852
0.1469757
0.1470731
0.1471795
0.147297
0.1474287
0.1475778
0.1477486
0.1479464
0.1481775
0.1484504
0.1487757
0.1491673
0.1496429
0.1502239
0.1509282
0.1517249
0.1522985
0.1507128
0.1436054
0.1047656
0.1409548
0.1408176
0.141659
0.1422959
0.1428586
0.1433201
0.14369
0.1439892
0.1442354
0.144442
0.1446186
0.1447724
0.1449083
0.1450303
0.1451411
0.1452428
0.1453371
0.1454252
0.1455082
0.145587
0.1456622
0.1457347
0.145805
0.1458737
0.1459416
0.1460092
0.1460775
0.1461471
0.1462192
0.1462947
0.1463751
0.1464619
0.1465567
0.1466618
0.1467798
0.1469139
0.1470679
0.1472468
0.1474568
0.1477058
0.1480041
0.1483652
0.1488068
0.1493505
0.1500149
0.150772
0.151313
0.149729
0.1427445
0.1049222
0.1422963
0.1409195
0.1414852
0.1420363
0.1425528
0.1429805
0.1433222
0.1435965
0.1438203
0.1440063
0.144164
0.1443001
0.1444197
0.1445263
0.1446227
0.1447107
0.1447921
0.1448679
0.1449392
0.1450068
0.1450713
0.1451333
0.1451935
0.1452524
0.1453106
0.1453687
0.1454274
0.1454874
0.1455495
0.1456149
0.1456845
0.1457597
0.1458422
0.1459338
0.1460369
0.1461543
0.1462896
0.1464473
0.1466332
0.1468545
0.147121
0.1474457
0.1478454
0.1483414
0.1489528
0.1496538
0.150143
0.1485461
0.141696
0.1051217
0.1578941
0.1420742
0.1413492
0.1417167
0.142169
0.142554
0.1428617
0.143107
0.1433053
0.1434685
0.1436054
0.1437226
0.1438246
0.1439151
0.1439963
0.1440702
0.1441383
0.1442015
0.1442609
0.144317
0.1443706
0.1444221
0.144472
0.1445209
0.1445692
0.1446175
0.1446663
0.1447163
0.1447682
0.1448227
0.144881
0.1449441
0.1450134
0.1450906
0.1451776
0.145277
0.1453919
0.1455263
0.1456852
0.1458753
0.1461054
0.1463872
0.1467365
0.1471732
0.1477156
0.1483385
0.1487484
0.1471114
0.1403975
0.1053882
0.1591071
0.1421703
0.1411019
0.1413424
0.1417174
0.1420381
0.1422993
0.1425088
0.1426772
0.1428147
0.1429289
0.1430257
0.1431093
0.1431829
0.1432485
0.143308
0.1433625
0.143413
0.1434603
0.1435049
0.1435475
0.1435884
0.143628
0.1436668
0.1437052
0.1437436
0.1437824
0.1438222
0.1438636
0.1439072
0.1439538
0.1440044
0.14406
0.1441221
0.1441923
0.1442726
0.1443658
0.144475
0.1446048
0.1447605
0.14495
0.1451832
0.145474
0.1458397
0.1462955
0.1468144
0.1471074
0.1453823
0.138764
0.1057647
0.1592052
0.1423349
0.1410272
0.1411023
0.1413502
0.1414871
0.1416622
0.1418227
0.141956
0.1420651
0.1421551
0.1422307
0.1422954
0.1423518
0.1424019
0.1424469
0.1424881
0.1425261
0.1425615
0.142595
0.1426268
0.1426574
0.142687
0.142716
0.1427446
0.1427733
0.1428024
0.1428322
0.1428632
0.142896
0.142931
0.1429691
0.1430111
0.143058
0.1431111
0.1431722
0.1432431
0.1433266
0.143426
0.143546
0.1436924
0.1438736
0.1441004
0.1443864
0.1447412
0.1451319
0.1452688
0.1433859
0.1367448
0.1063439
0.1488019
0.1429136
0.1423349
0.1421708
0.1420752
0.1409212
0.1408202
0.1409032
0.1409969
0.1410773
0.1411441
0.1411998
0.141247
0.1412877
0.1413235
0.1413556
0.1413846
0.1414114
0.1414363
0.1414597
0.1414819
0.1415032
0.1415239
0.1415441
0.1415641
0.1415842
0.1416044
0.1416253
0.141647
0.1416699
0.1416944
0.1417212
0.1417507
0.1417838
0.1418214
0.1418646
0.1419151
0.1419747
0.142046
0.1421323
0.1422382
0.1423697
0.1425349
0.1427426
0.1429967
0.1432586
0.1432513
0.141474
0.1360751
0.1075032
0.1665295
0.1488022
0.1592047
0.1591069
0.1578941
0.1422976
0.1409568
0.1408931
0.1409463
0.1410027
0.1410508
0.141091
0.1411247
0.1411535
0.1411785
0.1412008
0.1412208
0.1412391
0.1412561
0.1412721
0.1412872
0.1413017
0.1413157
0.1413295
0.141343
0.1413566
0.1413703
0.1413845
0.1413992
0.1414148
0.1414315
0.1414497
0.1414698
0.1414924
0.1415181
0.1415479
0.1415826
0.1416238
0.1416733
0.1417335
0.1418077
0.1419002
0.1420167
0.1421626
0.1423364
0.1424845
0.1423906
0.1419643
0.144719
0.1082239
0.1490167
0.1396387
0.1398749
0.1347319
0.1331313
0.1326546
0.1324331
0.1323859
0.1324245
0.1324836
0.1325385
0.1325846
0.1326229
0.1326555
0.1326838
0.132709
0.1327318
0.1327528
0.1327723
0.1327906
0.1328078
0.1328242
0.1328399
0.1328549
0.1328695
0.1328838
0.1328979
0.1329121
0.1329266
0.1329418
0.1329579
0.1329754
0.1329948
0.1330168
0.1330419
0.1330712
0.1331059
0.1331474
0.1331976
0.133259
0.1333346
0.1334276
0.1335399
0.1336657
0.1337722
0.1337395
0.1332436
0.1318044
0.1287907
0.1112916
0.1418743
0.1360828
0.1344955
0.1330211
0.132642
0.1325313
0.132507
0.1325607
0.1326468
0.1327313
0.1328034
0.1328631
0.1329131
0.132956
0.1329936
0.1330273
0.1330579
0.1330862
0.1331125
0.1331373
0.1331607
0.1331829
0.1332042
0.1332246
0.1332443
0.1332637
0.1332828
0.1333019
0.1333215
0.1333419
0.1333636
0.1333871
0.1334131
0.1334425
0.1334762
0.1335154
0.1335616
0.1336168
0.1336835
0.1337648
0.1338648
0.1339878
0.1341371
0.1343083
0.1344677
0.1344804
0.1338956
0.1314788
0.1246735
0.1088209
0.1383705
0.1343811
0.1329191
0.1326935
0.1328559
0.1330372
0.1331994
0.1333525
0.133489
0.1336037
0.1336981
0.1337766
0.1338432
0.1339009
0.1339521
0.1339983
0.1340406
0.1340798
0.1341165
0.1341511
0.1341837
0.1342148
0.1342445
0.134273
0.1343005
0.1343274
0.1343538
0.1343804
0.1344074
0.1344354
0.1344652
0.1344975
0.1345331
0.1345733
0.1346193
0.1346727
0.1347355
0.1348103
0.1349004
0.1350099
0.135144
0.1353089
0.1355099
0.135745
0.1359811
0.1360736
0.13551
0.132784
0.1247652
0.1064643
0.1346373
0.1330552
0.1326872
0.132911
0.1332754
0.1336036
0.1338707
0.1340873
0.1342627
0.1344051
0.1345223
0.1346206
0.134705
0.1347791
0.1348453
0.1349055
0.134961
0.1350126
0.135061
0.1351067
0.13515
0.1351911
0.1352304
0.135268
0.1353043
0.1353397
0.1353744
0.135409
0.1354443
0.1354808
0.1355195
0.1355613
0.1356075
0.1356595
0.1357188
0.1357877
0.1358685
0.1359645
0.1360797
0.1362193
0.1363898
0.1365987
0.1368533
0.1371536
0.1374666
0.1376412
0.1371361
0.1343538
0.1259403
0.105119
0.1334728
0.1327783
0.1328692
0.1332717
0.1337307
0.1341313
0.134453
0.1347083
0.1349126
0.1350788
0.1352168
0.1353342
0.1354361
0.1355264
0.1356078
0.1356823
0.1357513
0.1358158
0.1358764
0.1359336
0.1359879
0.1360396
0.1360889
0.136136
0.1361813
0.1362253
0.1362685
0.1363114
0.1363548
0.1363997
0.1364472
0.1364985
0.136555
0.1366185
0.136691
0.1367749
0.1368733
0.1369898
0.1371293
0.1372977
0.1375024
0.1377524
0.1380561
0.1384144
0.1387937
0.139037
0.1385823
0.1357714
0.127064
0.1042192
0.1328351
0.1325963
0.1330418
0.1335988
0.1341289
0.1345732
0.1349278
0.1352096
0.1354366
0.1356233
0.1357803
0.1359153
0.1360338
0.1361398
0.1362361
0.1363248
0.1364073
0.1364846
0.1365575
0.1366266
0.1366921
0.1367544
0.1368139
0.1368706
0.136925
0.1369775
0.1370289
0.1370797
0.137131
0.137184
0.1372397
0.1372999
0.1373661
0.1374404
0.1375251
0.1376231
0.1377376
0.1378731
0.1380347
0.138229
0.1384644
0.1387504
0.1390963
0.1395027
0.1399348
0.1402292
0.1398069
0.1369593
0.1279959
0.1035699
0.1324744
0.1325177
0.1331954
0.1338649
0.1344485
0.134925
0.1353042
0.1356072
0.1358536
0.1360585
0.1362328
0.1363843
0.1365185
0.1366396
0.1367503
0.1368528
0.1369486
0.1370388
0.1371241
0.137205
0.1372819
0.137355
0.1374246
0.1374909
0.1375542
0.1376151
0.1376743
0.1377326
0.1377912
0.1378514
0.1379147
0.1379829
0.1380578
0.1381419
0.1382376
0.1383482
0.1384773
0.1386296
0.1388107
0.1390278
0.1392896
0.139606
0.1399865
0.1404313
0.1409033
0.1412335
0.1408282
0.1379387
0.1287572
0.1030749
0.1323873
0.1325563
0.1333453
0.1340793
0.1347004
0.1352028
0.1356029
0.1359246
0.1361885
0.1364101
0.1366003
0.1367672
0.1369163
0.1370518
0.1371765
0.1372926
0.1374015
0.1375045
0.1376022
0.1376951
0.1377834
0.1378674
0.1379472
0.1380229
0.138095
0.1381639
0.1382305
0.1382957
0.1383609
0.1384275
0.1384974
0.1385726
0.1386551
0.1387477
0.138853
0.1389746
0.1391164
0.1392833
0.1394813
0.1397177
0.1400016
0.140343
0.1407511
0.1412255
0.1417268
0.1420808
0.1416819
0.1387497
0.1293836
0.1026806
0.1324189
0.1326389
0.133479
0.1342509
0.1348998
0.1354241
0.1358432
0.1361821
0.1364622
0.1366992
0.1369044
0.1370858
0.1372492
0.1373985
0.1375368
0.1376662
0.1377882
0.137904
0.1380141
0.1381191
0.1382189
0.1383138
0.1384038
0.1384889
0.1385695
0.138646
0.1387194
0.1387909
0.1388617
0.1389339
0.1390093
0.1390903
0.1391792
0.1392789
0.1393924
0.1395233
0.1396759
0.1398552
0.1400674
0.1403199
0.1406219
0.1409834
0.1414132