/*--------------------------------*- C++ -*----------------------------------*\
| =========                 |                                                 |
| \\      /  F ield         | OpenFOAM: The Open Source CFD Toolbox           |
|  \\    /   O peration     | Version:  2506                                  |
|   \\  /    A nd           | Website:  www.openfoam.com                      |
|    \\/     M anipulation  |                                                 |
\*---------------------------------------------------------------------------*/
FoamFile
{
    version     2.0;
    format      ascii;
    arch        "LSB;label=32;scalar=64";
    class       volVectorField;
    location    "450/airRegion";
    object      U;
}
// * * * * * * * * * * * * * * * * * * * * * * * * * * * * * * * * * * * * * //

dimensions      [0 1 -1 0 0 0 0];

internalField   nonuniform List<vector> 
85779
(
(-0.001367435 -0.001367517 -0.0212636)
(-0.001904897 -0.001905132 -0.02086471)
(-0.001943704 -0.001943899 -0.02023084)
(-0.001966137 -0.001965481 -0.01961089)
(-0.002284831 -0.002283273 -0.01931979)
(-0.003175091 -0.003162725 -0.01991412)
(-0.004545377 -0.004445576 -0.02194741)
(-0.001806041 -0.001978176 -0.02614879)
(0.003999891 0.004015563 -0.05928369)
(0.01380778 0.01399524 -0.07946383)
(0.02882745 0.02902919 -0.09472878)
(0.04732032 0.04759581 -0.1027381)
(0.0691568 0.0695609 -0.1027601)
(0.09338816 0.09397679 -0.09424506)
(0.1175489 0.1183959 -0.07697244)
(0.1374525 0.138601 -0.05169624)
(0.1474002 0.1487827 -0.02086254)
(0.1401568 0.1415561 0.01278069)
(0.115527 0.1167094 0.03990891)
(0.08174263 0.08263749 0.05641935)
(0.04785884 0.04842603 0.05990034)
(0.02137214 0.02087737 0.05193759)
(0.002490169 0.002207989 0.03071053)
(-0.005298087 -0.004704118 0.01886139)
(-0.006413997 -0.006351942 0.01720655)
(-0.007713484 -0.007693099 0.0157427)
(-0.009489599 -0.009479258 0.01510495)
(-0.01172759 -0.01172302 0.0141191)
(-0.01357957 -0.01357779 0.01246409)
(-0.005032965 -0.005032566 0.003031545)
(-0.004364282 -0.001388745 -0.03819269)
(-0.006273962 -0.002170914 -0.03806175)
(-0.006374616 -0.002311355 -0.0376143)
(-0.005982684 -0.002231618 -0.03718661)
(-0.005568323 -0.002175908 -0.03733943)
(-0.004867526 -0.002259056 -0.03892448)
(-0.002493747 -0.00166772 -0.04158649)
(0.003098771 0.005899777 -0.05207967)
(0.008894762 0.01660043 -0.07536751)
(0.01862323 0.02528276 -0.09095926)
(0.03445654 0.03617655 -0.1028966)
(0.05400783 0.05000262 -0.1085441)
(0.07684295 0.06671385 -0.1068316)
(0.1018561 0.0855769 -0.09708102)
(0.1265571 0.1046771 -0.07899448)
(0.1468268 0.1205685 -0.05325038)
(0.1570399 0.1283608 -0.0222443)
(0.1498427 0.122287 0.01141885)
(0.1245403 0.1023507 0.03924294)
(0.08935022 0.07546256 0.05735568)
(0.05328786 0.04886505 0.06366869)
(0.02333014 0.02702482 0.0600043)
(0.004623713 0.009797163 0.05063902)
(-0.005889785 -0.001085174 0.03285457)
(-0.01513488 -0.004593913 0.03046901)
(-0.02131384 -0.006836549 0.0274742)
(-0.02762273 -0.008752731 0.02540422)
(-0.03606714 -0.01027815 0.02248253)
(-0.04985169 -0.009914581 0.01939538)
(-0.06717682 0.002035082 -0.002548556)
(-0.006981095 -0.001126899 -0.04580685)
(-0.01039718 -0.001927126 -0.0458674)
(-0.0107006 -0.002171433 -0.04579752)
(-0.009865979 -0.002166892 -0.0459173)
(-0.008464433 -0.002141717 -0.04697918)
(-0.005743055 -0.002209089 -0.04996061)
(0.002234218 -0.0003472864 -0.05378311)
(0.005795483 0.009408955 -0.0790674)
(0.01092343 0.01979442 -0.09324692)
(0.02391523 0.02812061 -0.1053825)
(0.04135888 0.03760338 -0.1137291)
(0.0624034 0.04920269 -0.116419)
(0.08654314 0.06302293 -0.1124837)
(0.1125231 0.07856772 -0.1011335)
(0.137851 0.09432234 -0.0820119)
(0.1585027 0.1074153 -0.055689)
(0.1689291 0.113654 -0.02438565)
(0.16177 0.1082425 0.00946696)
(0.1357766 0.09111003 0.03813623)
(0.09910891 0.06816326 0.05776054)
(0.06082793 0.04536009 0.06631918)
(0.02819335 0.02612635 0.06487116)
(0.006948777 0.01071913 0.05774187)
(-0.008349679 0.0002638516 0.03781981)
(-0.02362047 -0.003621004 0.03489164)
(-0.03485499 -0.006094102 0.03075016)
(-0.04621186 -0.008024346 0.02722618)
(-0.06076891 -0.009375498 0.02234435)
(-0.08271426 -0.009146466 0.0181355)
(-0.1044183 -0.001841546 -0.01030379)
(-0.008995316 -0.0008112187 -0.04947786)
(-0.0138129 -0.001496776 -0.04951704)
(-0.01443938 -0.001787413 -0.04967908)
(-0.01323933 -0.001880319 -0.05031599)
(-0.01081485 -0.002025766 -0.05237764)
(-0.006263434 -0.0022595 -0.056235)
(0.004257204 0.001518229 -0.06307299)
(0.009619804 0.01086129 -0.09148589)
(0.01566359 0.01949011 -0.1056473)
(0.02996171 0.02750026 -0.1168582)
(0.04878296 0.03628146 -0.1232657)
(0.07120214 0.04646498 -0.123909)
(0.09648337 0.05826358 -0.1181841)
(0.1232622 0.07135717 -0.1054377)
(0.1490847 0.08456097 -0.08537161)
(0.1700457 0.0954916 -0.05850687)
(0.1806643 0.1005336 -0.02689834)
(0.1735874 0.09555983 0.00716001)
(0.1470177 0.08041107 0.03658604)
(0.1090929 0.0603557 0.05725122)
(0.06873055 0.04044623 0.06708152)
(0.03323512 0.02355041 0.0665388)
(0.008510044 0.01021423 0.05967237)
(-0.01118774 0.000808233 0.03870071)
(-0.03137668 -0.0029022 0.03514594)
(-0.04723727 -0.005236998 0.030127)
(-0.0630597 -0.006965024 0.02559392)
(-0.0820094 -0.008028997 0.01965993)
(-0.1077987 -0.007720765 0.01581336)
(-0.1264896 -0.002252533 -0.0149399)
(-0.01040912 -0.0005403783 -0.05132654)
(-0.01636078 -0.001060908 -0.05126129)
(-0.01734319 -0.001332412 -0.05153509)
(-0.01589865 -0.001458992 -0.052657)
(-0.01249776 -0.001560092 -0.05580835)
(-0.004486426 -0.001439052 -0.06053219)
(0.004826092 0.00269246 -0.0804098)
(0.01047862 0.01104851 -0.1013424)
(0.02032397 0.01854282 -0.1148657)
(0.03629774 0.02584435 -0.1254337)
(0.05638239 0.03372062 -0.1306746)
(0.07989118 0.04264339 -0.1300365)
(0.1059771 0.05278244 -0.1230868)
(0.1332413 0.06389327 -0.1093384)
(0.159319 0.0750275 -0.08858582)
(0.1804491 0.08418938 -0.06132793)
(0.1912093 0.08823293 -0.02947189)
(0.1842485 0.0835619 0.004755829)
(0.1572705 0.07000292 0.03476941)
(0.1184485 0.05241261 0.05601451)
(0.07643175 0.03514816 0.06642506)
(0.03836408 0.02062824 0.06613111)
(0.01021978 0.009319328 0.05906272)
(-0.01340086 0.001035996 0.0377376)
(-0.03771584 -0.002280908 0.03362402)
(-0.05752059 -0.004311283 0.02803252)
(-0.07689351 -0.005740724 0.02297641)
(-0.09873739 -0.006512364 0.01670034)
(-0.1262831 -0.006123852 0.01366349)
(-0.1418951 -0.002035154 -0.01800675)
(-0.01133511 -0.0003416872 -0.05228315)
(-0.0181061 -0.0007064292 -0.05210953)
(-0.01937788 -0.0009299464 -0.05241484)
(-0.01771528 -0.001066002 -0.05374601)
(-0.01354114 -0.001155771 -0.05738081)
(-0.005426234 -0.0008367502 -0.06246918)
(0.007208468 0.003205354 -0.07783703)
(0.01539829 0.01105638 -0.1052395)
(0.02525025 0.01753 -0.1205841)
(0.04245528 0.02381313 -0.1311699)
(0.06373523 0.03063643 -0.1359254)
(0.0881203 0.0383388 -0.1345268)
(0.1147444 0.04701282 -0.1268126)
(0.142242 0.0564393 -0.1124441)
(0.1683833 0.0658354 -0.09129703)
(0.1895689 0.07350787 -0.06384525)
(0.2004143 0.07669294 -0.03185392)
(0.1935482 0.07224464 0.002463239)
(0.1662747 0.06006983 0.03286571)
(0.1268935 0.04473556 0.05432069)
(0.08373112 0.02997896 0.06488737)
(0.04363454 0.01776123 0.06457049)
(0.01252831 0.00832881 0.0572806)
(-0.01447976 0.00114943 0.03609621)
(-0.04225589 -0.001693436 0.03157784)
(-0.06532341 -0.003373804 0.02567436)
(-0.08744492 -0.004505029 0.02043173)
(-0.11123 -0.005048495 0.01419617)
(-0.1396484 -0.004653498 0.01196027)
(-0.152686 -0.001668167 -0.02000127)
(-0.01190891 -0.0002072594 -0.05279192)
(-0.01922512 -0.0004480934 -0.05254749)
(-0.02070092 -0.0006210697 -0.05289661)
(-0.01885952 -0.0007748063 -0.05453953)
(-0.01388304 -0.001029094 -0.05886416)
(-0.002837288 -0.001071075 -0.06438894)
(0.007718895 0.004490322 -0.08989471)
(0.0159406 0.01173383 -0.111083)
(0.02929045 0.01662125 -0.125587)
(0.0481316 0.02160311 -0.135568)
(0.07051847 0.02732877 -0.1396132)
(0.09565727 0.03387288 -0.1376043)
(0.1226579 0.04123002 -0.1293774)
(0.1502329 0.04918286 -0.1146536)
(0.1763249 0.05707332 -0.09334544)
(0.1975018 0.06345179 -0.06587466)
(0.2083788 0.06587899 -0.03385548)
(0.2015248 0.06161686 0.0004822714)
(0.1740016 0.05074459 0.03108441)
(0.1343527 0.03757325 0.05246791)
(0.09054917 0.02521614 0.06293704)
(0.04903097 0.01515262 0.06251619)
(0.01555243 0.007389802 0.05512211)
(-0.01430064 0.00121971 0.03438359)
(-0.04498907 -0.001147639 0.02961188)
(-0.0707492 -0.002495855 0.02356791)
(-0.09502674 -0.003371764 0.01831892)
(-0.120195 -0.0037588 0.0122755)
(-0.1491098 -0.003420878 0.01073708)
(-0.160253 -0.001285714 -0.02134507)
(-0.01224254 -0.0001188984 -0.05306671)
(-0.01988592 -0.0002632258 -0.05278739)
(-0.02147218 -0.0003701184 -0.05319725)
(-0.019445 -0.0004608266 -0.05513938)
(-0.0136929 -0.0005629289 -0.0602513)
(-0.0001927463 -0.0003146239 -0.06607888)
(0.008341721 0.004517915 -0.09886917)
(0.01665468 0.01033082 -0.1156961)
(0.03292303 0.01454807 -0.1296368)
(0.05330361 0.018862 -0.1386801)
(0.07671177 0.023768 -0.1420043)
(0.1024578 0.02934499 -0.139485)
(0.1297019 0.03555973 -0.13091)
(0.1572563 0.04221974 -0.116012)
(0.1832468 0.04878079 -0.09470514)
(0.2043921 0.05400538 -0.06733404)
(0.2152495 0.0557531 -0.03535147)
(0.2082776 0.05168514 -0.001019097)
(0.1805073 0.0421223 0.02961384)
(0.1408376 0.03107001 0.05071281)
(0.09684324 0.02098767 0.06092939)
(0.0544669 0.01287796 0.06039898)
(0.01919878 0.0065511 0.05302664)
(-0.01300042 0.001255119 0.0328855)
(-0.04616149 -0.0006751993 0.0279746)
(-0.07416708 -0.001734833 0.02187764)
(-0.1001806 -0.002407291 0.01669308)
(-0.1264064 -0.002694318 0.0108708)
(-0.1556665 -0.002442774 0.009880475)
(-0.1655082 -0.000946912 -0.02226314)
(-0.0124184 -6.328485e-05 -0.0532119)
(-0.02022474 -0.0001388172 -0.05291253)
(-0.02182328 -0.0001838317 -0.05335033)
(-0.01958629 -0.0001830887 -0.05541929)
(-0.01326483 -6.526041e-05 -0.06076597)
(0.001289052 0.0006415184 -0.06670571)
(0.01049733 0.00411266 -0.1004633)
(0.0196907 0.008272656 -0.1172506)
(0.03704984 0.01204209 -0.1313088)
(0.05832322 0.01590812 -0.1401313)
(0.08240349 0.02016602 -0.1431354)
(0.1085502 0.02490142 -0.1403358)
(0.1359097 0.03009732 -0.131578)
(0.1633779 0.03559603 -0.1166358)
(0.1892544 0.04095149 -0.09542924)
(0.2103704 0.04511855 -0.06821673)
(0.2211589 0.04625862 -0.03628821)
(0.2139291 0.04245192 -0.00195413)
(0.1859152 0.03427578 0.02855514)
(0.1464323 0.02530333 0.04921412)
(0.1026025 0.01732792 0.05908964)
(0.05981812 0.0109328 0.05846869)
(0.02325929 0.005809933 0.05120507)
(-0.01085289 0.00125498 0.031709)
(-0.04613562 -0.00029793 0.02673304)
(-0.07603426 -0.001119421 0.0206101)
(-0.1034768 -0.001634589 0.01549756)
(-0.130557 -0.001858012 0.009866266)
(-0.1601101 -0.001695153 0.009291544)
(-0.1690859 -0.0006651331 -0.02286852)
(-0.01249915 -3.212206e-05 -0.05328884)
(-0.0203651 -6.912413e-05 -0.05298137)
(-0.02191773 -8.442327e-05 -0.0534355)
(-0.01946873 -5.289748e-05 -0.05556091)
(-0.01269419 0.000124069 -0.060969)
(0.002659579 0.0009314083 -0.06696411)
(0.01277878 0.003769375 -0.1007328)
(0.0228781 0.006883029 -0.1176455)
(0.0410242 0.009975674 -0.1318583)
(0.06292935 0.01321789 -0.1406325)
(0.08747551 0.01675898 -0.1434739)
(0.1138768 0.02065721 -0.1405051)
(0.1412707 0.02488611 -0.131642)
(0.1686299 0.02929977 -0.1167088)
(0.194408 0.03352496 -0.09563311)
(0.2155047 0.03669885 -0.06858683)
(0.2261832 0.03731695 -0.03670613)
(0.2186114 0.03391503 -0.00236954)
(0.1904194 0.02725173 0.02787964)
(0.1512957 0.02029148 0.04801516)
(0.1078582 0.01420663 0.05752945)
(0.06495867 0.00927037 0.05685285)
(0.02748162 0.005154334 0.04974668)
(-0.008183622 0.00126283 0.03086526)
(-0.04529468 -1.638134e-05 0.02586016)
(-0.07679436 -0.0006529654 0.01970892)
(-0.1054247 -0.001047395 0.01464897)
(-0.1332147 -0.001226776 0.009162297)
(-0.1630365 -0.001134809 0.008889911)
(-0.1714618 -0.0004486519 -0.02326193)
(-0.01252959 -1.826615e-05 -0.05333483)
(-0.02040318 -4.267157e-05 -0.05303235)
(-0.02188969 -6.261396e-05 -0.05351338)
(-0.01924684 -6.471367e-05 -0.0556958)
(-0.01209837 6.234771e-05 -0.06112529)
(0.003951086 0.0009196836 -0.0672409)
(0.014822 0.003441313 -0.1009475)
(0.02564466 0.005860017 -0.1179067)
(0.04441818 0.008237374 -0.1321193)
(0.0668265 0.01076272 -0.1407881)
(0.09173077 0.01353774 -0.1434659)
(0.1183171 0.01659158 -0.1403373)
(0.145723 0.01987852 -0.1313732)
(0.1729866 0.02325292 -0.11644)
(0.1986839 0.02639674 -0.0954761)
(0.2197529 0.0286368 -0.06858042)
(0.2303095 0.02885713 -0.03675849)
(0.2224581 0.02607238 -0.002465563)
(0.1942687 0.02104881 0.02743898)
(0.1556351 0.01597951 0.04707293)
(0.1126685 0.01153368 0.05629065)
(0.0697725 0.00780773 0.05562459)
(0.03161316 0.004534947 0.04873893)
(-0.005298119 0.001261471 0.0303722)
(-0.04400064 0.000169164 0.02526247)
(-0.07683619 -0.0003253676 0.0190971)
(-0.106447 -0.0006247821 0.01406723)
(-0.1348264 -0.0007692011 0.008680397)
(-0.1648932 -0.0007270243 0.008619362)
(-0.1729864 -0.0002892033 -0.02351247)
(-0.01253986 -1.516117e-05 -0.05337268)
(-0.02040684 -4.509487e-05 -0.05309241)
(-0.02183274 -0.0001013017 -0.05363638)
(-0.01900966 -0.0002055065 -0.05593796)
(-0.01156282 -0.0003259626 -0.06145428)
(0.00494358 0.0008380114 -0.06791318)
(0.01635629 0.003299855 -0.1016733)
(0.02768372 0.005010427 -0.1185432)
(0.0469687 0.006651404 -0.1325634)
(0.06980444 0.008420144 -0.1409835)
(0.09501224 0.01041121 -0.1434255)
(0.1217566 0.01262294 -0.1401005)
(0.1491786 0.01499004 -0.1310079)
(0.1763621 0.01736507 -0.1160425)
(0.2019666 0.01948251 -0.09515438)
(0.2229732 0.02087344 -0.06839606)
(0.2334649 0.02084948 -0.03668109)
(0.2255982 0.01889379 -0.002524394)
(0.1977059 0.0155761 0.02704813)
(0.1596372 0.01222754 0.04632147)
(0.1170759 0.009171744 0.05538373)
(0.07414743 0.006444517 0.05479844)
(0.03541799 0.00387629 0.04815153)
(-0.002502698 0.001147517 0.03016143)
(-0.04256571 0.0002484568 0.02488091)
(-0.07648288 -0.0001216128 0.0187085)
(-0.1068794 -0.0003400921 0.01368705)
(-0.1357345 -0.0004517291 0.00836207)
(-0.1660137 -0.0004398898 0.008441832)
(-0.1739203 -0.0001759222 -0.02366665)
(-0.01254805 -1.304182e-05 -0.05341415)
(-0.02042084 -4.421204e-05 -0.05317966)
(-0.02182561 -0.0001142602 -0.05385239)
(-0.01887784 -0.0003298315 -0.05650779)
(-0.01118271 -0.0007321832 -0.06200651)
(0.00535968 0.0008878455 -0.07055369)
(0.01710747 0.003107466 -0.1031673)
(0.02889992 0.003964645 -0.1199097)
(0.04858964 0.00485051 -0.1333588)
(0.07180153 0.005963437 -0.1413689)
(0.0972671 0.007241737 -0.1434952)
(0.1241424 0.00866518 -0.1399442)
(0.1515756 0.01016129 -0.1307092)
(0.1786773 0.01159244 -0.1156951)
(0.2041586 0.0127559 -0.09486154)
(0.2250687 0.01339782 -0.06824561)
(0.2355992 0.01326447 -0.03670588)
(0.2281053 0.01227678 -0.002780773)
(0.20086 0.01065597 0.02658015)
(0.1633814 0.008848073 0.04572513)
(0.121057 0.00697885 0.05482176)
(0.0779498 0.005109578 0.05437314)
(0.03866887 0.003172323 0.04789747)
(-9.567029e-05 0.0009417278 0.03014469)
(-0.04124928 0.0002266037 0.02470681)
(-0.07598992 -2.355308e-05 0.01849989)
(-0.1069783 -0.000164759 0.01346094)
(-0.1361935 -0.0002414612 0.008165739)
(-0.166642 -0.0002438693 0.008331851)
(-0.1744545 -9.804469e-05 -0.0237559)
(-0.01255231 -7.904062e-06 -0.05344273)
(-0.0204278 -2.671486e-05 -0.05324147)
(-0.02182147 -6.616421e-05 -0.05406996)
(-0.01876177 -0.0001452987 -0.05705647)
(-0.009266026 -0.0002499329 -0.06270191)
(0.004847788 0.0004541275 -0.08113972)
(0.01546318 0.001546272 -0.1057693)
(0.02948632 0.002176504 -0.1211111)
(0.04958806 0.00274524 -0.1340698)
(0.0729673 0.003341461 -0.1416657)
(0.09857428 0.004003697 -0.1435683)
(0.125516 0.004715983 -0.1398566)
(0.1529288 0.005410357 -0.1305243)
(0.1799235 0.005966682 -0.1154874)
(0.2052327 0.006249685 -0.09472212)
(0.2260042 0.006223372 -0.06828453)
(0.2366826 0.006059515 -0.03701268)
(0.2299823 0.006071664 -0.003418741)
(0.2037379 0.006073633 0.02592716)
(0.1668405 0.005648652 0.04524006)
(0.1245261 0.004824135 0.05461285)
(0.0810171 0.00375064 0.05439868)
(0.041141 0.00249272 0.0480538)
(0.00166398 0.0007439734 0.03035845)
(-0.04025641 7.83646e-05 0.02471726)
(-0.07553725 -1.49337e-05 0.0184465)
(-0.1069249 -6.971266e-05 0.01335884)
(-0.1363832 -0.000106545 0.008063403)
(-0.1669501 -0.0001114282 0.00827264)
(-0.1747244 -4.51095e-05 -0.0238014)
(-0.01255566 -1.610547e-06 -0.05345549)
(-0.0204344 -4.243144e-06 -0.05326512)
(-0.02181755 -6.931388e-06 -0.05405775)
(-0.01876704 -5.351338e-06 -0.05699207)
(-0.01086586 9.949942e-06 -0.06242801)
(0.005857729 6.682994e-05 -0.07218558)
(0.01783131 0.0002316039 -0.1044102)
(0.02991596 0.0003963709 -0.121175)
(0.0498811 0.0005406555 -0.1341728)
(0.07338257 0.0006637431 -0.1417766)
(0.09904027 0.0007697759 -0.14358)
(0.1259799 0.0008344855 -0.1397949)
(0.1533344 0.0007925748 -0.130424)
(0.1801889 0.0005384829 -0.1154004)
(0.2052571 -2.801292e-06 -0.09473424)
(0.2258129 -0.0006607218 -0.06855399)
(0.2367061 -0.0008624867 -0.03771209)
(0.2311711 5.117453e-05 -0.004603311)
(0.2062473 0.001549347 0.02494343)
(0.169916 0.002390592 0.04476143)
(0.1273861 0.002514446 0.05470699)
(0.0832397 0.002236677 0.05493385)
(0.0426421 0.001825017 0.04872448)
(0.002554465 0.0006165172 0.03122838)
(-0.03970075 -0.0002193082 0.02486854)
(-0.07524441 -6.997953e-05 0.0185786)
(-0.1068352 -1.352094e-05 0.01336929)
(-0.1364174 -1.210039e-05 0.008038313)
(-0.1670473 -1.509126e-05 0.008253646)
(-0.1748164 -6.541214e-06 -0.02381622)
(-0.01255626 4.227322e-06 -0.05344895)
(-0.02043485 1.693854e-05 -0.05324968)
(-0.02182536 5.058671e-05 -0.05408197)
(-0.01875633 0.000130854 -0.05707365)
(-0.009252539 0.0002905298 -0.06269715)
(0.004972081 -0.0003041074 -0.08107485)
(0.01563336 -0.001074154 -0.1057411)
(0.02967636 -0.001348053 -0.1211229)
(0.04979201 -0.001631133 -0.1340625)
(0.07317305 -0.001963092 -0.1416138)
(0.09875452 -0.002383006 -0.1434601)
(0.1256331 -0.002922588 -0.1396996)
(0.1529128 -0.003640921 -0.1303457)
(0.1796168 -0.004622457 -0.1153554)
(0.2043898 -0.005882062 -0.09479275)
(0.2246373 -0.007091177 -0.06890822)
(0.2357241 -0.007406021 -0.03861194)
(0.231523 -0.005926867 -0.006153337)
(0.2081706 -0.003239339 0.02363087)
(0.1724652 -0.001214124 0.04416117)
(0.1296406 -0.000180239 0.05492098)
(0.08467856 0.0001857202 0.05581063)
(0.04230846 0.0003446799 0.05029715)
(0.002179641 7.939723e-05 0.03679595)
(-0.03878899 -0.0001639646 0.02525862)
(-0.07509678 -4.885831e-06 0.01889526)
(-0.1067453 6.038065e-05 0.01348148)
(-0.1363408 7.812103e-05 0.00807119)
(-0.1669822 7.193872e-05 0.008265321)
(-0.1747696 2.803154e-05 -0.02380764)
(-0.01255746 7.136838e-06 -0.05342775)
(-0.02043728 2.600728e-05 -0.05319696)
(-0.02182919 6.978048e-05 -0.05387979)
(-0.01883679 0.0002326895 -0.05652671)
(-0.01110004 0.0005427898 -0.06206195)
(0.005648003 -0.0007574127 -0.07017951)
(0.01748605 -0.002380993 -0.1032377)
(0.02930348 -0.002932124 -0.1199629)
(0.04905396 -0.003566626 -0.1333707)
(0.07230193 -0.004403948 -0.1412552)
(0.09775348 -0.005369274 -0.1432496)
(0.1245424 -0.006507534 -0.1395806)
(0.1517582 -0.007873418 -0.1302733)
(0.1783463 -0.009524278 -0.1153059)
(0.2028487 -0.01141146 -0.09479733)
(0.2227669 -0.01309796 -0.06912586)
(0.2339587 -0.01359717 -0.03929823)
(0.230919 -0.01187072 -0.007480424)
(0.2091125 -0.008331382 0.02238824)
(0.1741191 -0.005215433 0.0435304)
(0.1311072 -0.003234505 0.05492372)
(0.08555232 -0.002266892 0.05609589)
(0.0432697 -0.001763085 0.05029377)
(0.002482203 -0.0006472515 0.0343972)
(-0.03932279 0.0002254317 0.02537621)
(-0.07507295 0.0001732255 0.01897467)
(-0.1066146 0.0001710168 0.01355352)
(-0.1361402 0.0001865547 0.008137355)
(-0.1667507 0.0001710441 0.008300238)
(-0.1745815 6.719917e-05 -0.02377736)
(-0.01256141 9.569297e-06 -0.05340162)
(-0.0204547 3.144087e-05 -0.05314287)
(-0.02188326 7.798041e-05 -0.05375291)
(-0.0189605 0.0001656713 -0.05625796)
(-0.01138621 0.0002567046 -0.06192548)
(0.005004545 -0.0006990241 -0.06964191)
(0.01657706 -0.002701733 -0.1026042)
(0.02816347 -0.004078503 -0.1191678)
(0.04773252 -0.005357051 -0.1327642)
(0.07074938 -0.006706048 -0.1408625)
(0.09601392 -0.008230833 -0.1430301)
(0.1227014 -0.009984037 -0.1394794)
(0.1498878 -0.01200715 -0.1302217)
(0.17644 -0.0143178 -0.1152411)
(0.2007866 -0.01679565 -0.09469967)
(0.2204615 -0.018923 -0.06908716)
(0.2316813 -0.01964913 -0.03952707)
(0.2294384 -0.01786579 -0.008166178)
(0.208873 -0.01370558 0.02164383)
(0.1745229 -0.009504444 0.04317906)
(0.1314478 -0.006366426 0.05493278)
(0.08557334 -0.004405886 0.05598393)
(0.04351713 -0.003033053 0.04982006)
(0.002519255 -0.0008901217 0.03161526)
(-0.03986569 0.0001758466 0.025338)
(-0.07514185 0.000226375 0.01887676)
(-0.1064067 0.0002830262 0.01363505)
(-0.1357702 0.0003222609 0.008245105)
(-0.1663075 0.000300008 0.00836416)
(-0.1742153 0.0001184909 -0.0237193)
(-0.01256203 1.165444e-05 -0.05336591)
(-0.0204666 3.290331e-05 -0.05306797)
(-0.02194121 7.113641e-05 -0.05357622)
(-0.01918938 0.0001311152 -0.0558219)
(-0.01185233 0.0001411447 -0.06131516)
(0.004392986 -0.0008055388 -0.06767929)
(0.01556611 -0.003193345 -0.1012878)
(0.02673455 -0.005141788 -0.1180469)
(0.04583289 -0.006957591 -0.1320314)
(0.06846566 -0.008868509 -0.1404293)
(0.09348858 -0.0110059 -0.142826)
(0.120077 -0.0134224 -0.1394126)
(0.1472819 -0.01614643 -0.1301957)
(0.1738941 -0.01915469 -0.1151564)
(0.1982253 -0.02225284 -0.09448473)
(0.2177818 -0.02484575 -0.06875896)
(0.2289872 -0.02583201 -0.0392293)
(0.2271582 -0.02404928 -0.008056084)
(0.2073812 -0.01935259 0.02165906)
(0.1734407 -0.01403411 0.0434403)
(0.1302745 -0.009540133 0.05543972)
(0.08413135 -0.006290406 0.05649703)
(0.04204103 -0.003769241 0.05018176)
(0.001290252 -0.001060459 0.03155658)
(-0.04059455 -8.079991e-05 0.025578)
(-0.07529196 0.0002442828 0.01908907)
(-0.1060839 0.0004267082 0.0138676)
(-0.1351566 0.0005143745 0.008448527)
(-0.1655633 0.0004836116 0.008477988)
(-0.1735981 0.0001915758 -0.02361913)
(-0.01255772 1.643415e-05 -0.0533319)
(-0.0204797 3.671861e-05 -0.05301436)
(-0.02202757 5.004356e-05 -0.0534675)
(-0.0194725 4.195236e-05 -0.05560555)
(-0.01246344 -9.080715e-05 -0.06099026)
(0.003327492 -0.0009009634 -0.06701064)
(0.01395315 -0.003432344 -0.1006262)
(0.02457362 -0.005957375 -0.1174764)
(0.04314809 -0.008420187 -0.1315829)
(0.06537702 -0.01099125 -0.1401452)
(0.09014521 -0.0138042 -0.1426921)
(0.1166435 -0.01693865 -0.1393761)
(0.1439103 -0.02042318 -0.1301666)
(0.1706693 -0.02419815 -0.1150177)
(0.1951137 -0.02799222 -0.09412554)
(0.2146702 -0.03111892 -0.06813529)
(0.2258401 -0.03240133 -0.03842817)
(0.2240938 -0.03060057 -0.007182714)
(0.2046352 -0.02534215 0.02246777)
(0.1708009 -0.01884664 0.0443897)
(0.1274859 -0.01288712 0.05649269)
(0.08122265 -0.008269708 0.05750266)
(0.03935904 -0.004677357 0.05101468)
(-0.0007777992 -0.001272027 0.03193712)
(-0.04160403 -0.0001062159 0.02602851)
(-0.07539536 0.000387624 0.01950413)
(-0.1054927 0.000674728 0.01426169)
(-0.1341389 0.0008068054 0.008774965)
(-0.1643603 0.0007531719 0.008659496)
(-0.1726056 0.000298089 -0.02345658)
(-0.01252932 3.227516e-05 -0.05328678)
(-0.02044713 6.997447e-05 -0.05296407)
(-0.02206468 8.828619e-05 -0.05338943)
(-0.01970888 6.649884e-05 -0.05546652)
(-0.01308405 -8.523673e-05 -0.06081318)
(0.002023208 -0.0008462762 -0.06670695)
(0.01194245 -0.0037206 -0.1003565)
(0.02186924 -0.006958701 -0.1171292)
(0.03983226 -0.01009424 -0.1311868)
(0.06158315 -0.01329929 -0.1398079)
(0.08603722 -0.01678372 -0.142464)
(0.1124149 -0.02066259 -0.1392323)
(0.1397531 -0.02496637 -0.1300189)
(0.1667135 -0.0295954 -0.1147331)
(0.1913646 -0.03419032 -0.09356158)
(0.2110108 -0.03794589 -0.06720099)
(0.2221305 -0.03956512 -0.03716671)
(0.2202019 -0.03768853 -0.005644721)
(0.2006526 -0.03176944 0.02398831)
(0.1666407 -0.02399042 0.0459817)
(0.1231403 -0.01644676 0.05805407)
(0.0769667 -0.01036043 0.05890921)
(0.03570305 -0.005648932 0.05214777)
(-0.003370434 -0.001472353 0.03249864)
(-0.0427061 -7.000015e-06 0.02669346)
(-0.07523914 0.0006629339 0.02014179)
(-0.1043959 0.001059969 0.01485602)
(-0.1324745 0.001236701 0.009263993)
(-0.1624636 0.001141025 0.008933922)
(-0.1710532 0.0004498398 -0.02320099)
(-0.01244677 6.488013e-05 -0.05320811)
(-0.02030134 0.0001444611 -0.05289129)
(-0.02195984 0.000198832 -0.05329329)
(-0.01981571 0.0002213144 -0.0552949)
(-0.01366326 0.0001518152 -0.06053839)
(0.0006417287 -0.0004848202 -0.06633155)
(0.009838218 -0.004007772 -0.09981639)
(0.01899216 -0.008322698 -0.1164062)
(0.03618859 -0.0121026 -0.1303133)
(0.05729413 -0.01586925 -0.1390041)
(0.08128541 -0.02000598 -0.1418309)
(0.1074397 -0.0246616 -0.1387389)
(0.134802 -0.02985814 -0.1295623)
(0.16197 -0.03545016 -0.1141588)
(0.1868756 -0.04097417 -0.09269857)
(0.206665 -0.04547195 -0.06592158)
(0.217717 -0.04747444 -0.03547973)
(0.2153999 -0.04544712 -0.003549328)
(0.1954434 -0.03872762 0.02609517)
(0.1610438 -0.02952137 0.04811017)
(0.1173868 -0.02025387 0.06004759)
(0.07157938 -0.01256354 0.06065866)
(0.03136132 -0.00661341 0.05354869)
(-0.006154683 -0.00156928 0.03325579)
(-0.0435766 0.0002156243 0.02763773)
(-0.07450247 0.001085309 0.0210592)
(-0.1024617 0.001612637 0.01571175)
(-0.1298248 0.0018413 0.009972735)
(-0.1595426 0.001681852 0.009338881)
(-0.1686824 0.0006588342 -0.02280611)
(-0.01226649 0.0001205684 -0.05306011)
(-0.01994943 0.0002685471 -0.05276086)
(-0.02158359 0.0003822574 -0.05312542)
(-0.0196404 0.0004889475 -0.05497453)
(-0.01408447 0.0006265465 -0.05991885)
(-0.000883435 0.0004519067 -0.065505)
(0.0080028 -0.004351369 -0.09771512)
(0.0164737 -0.01021875 -0.1143662)
(0.03255044 -0.01438963 -0.1282222)
(0.05269876 -0.01860087 -0.1372203)
(0.07598636 -0.02339869 -0.1404137)
(0.1017493 -0.02890593 -0.1376025)
(0.1290359 -0.03510984 -0.1285646)
(0.1563701 -0.04180724 -0.1131211)
(0.1815332 -0.04841452 -0.09142404)
(0.2014831 -0.05378512 -0.06425229)
(0.212444 -0.05622562 -0.0333949)
(0.209583 -0.05396785 -0.001001365)
(0.1890039 -0.04629083 0.02864464)
(0.1541099 -0.03549309 0.0506309)
(0.1104216 -0.02434954 0.06236301)
(0.06533994 -0.01490358 0.06270931)
(0.02668648 -0.007568366 0.05530862)
(-0.008713118 -0.001565856 0.03432244)
(-0.04382588 0.0005570421 0.02887458)
(-0.07277689 0.001665584 0.0223194)
(-0.0992577 0.00235668 0.01690649)
(-0.1257376 0.002655149 0.01097881)
(-0.1551464 0.002413036 0.009930124)
(-0.1651403 0.0009343212 -0.02220292)
(-0.0119287 0.0002081718 -0.0527851)
(-0.01927733 0.0004498649 -0.05252259)
(-0.02079092 0.0006210575 -0.05282996)
(-0.01901532 0.0007659689 -0.05438541)
(-0.01420347 0.001004222 -0.0585406)
(-0.003415988 0.001055422 -0.06382803)
(0.007548805 -0.004261829 -0.08861472)
(0.01595343 -0.01129356 -0.1097349)
(0.02910102 -0.01610659 -0.1241452)
(0.04774534 -0.02105595 -0.1340568)
(0.0700741 -0.0267572 -0.1379249)
(0.09529448 -0.03329394 -0.1355689)
(0.1223975 -0.04067362 -0.1268122)
(0.1498279 -0.04865588 -0.1114569)
(0.1752135 -0.05652783 -0.08963599)
(0.1953095 -0.06292055 -0.062159)
(0.2061493 -0.06586495 -0.03094827)
(0.2026368 -0.06329813 0.001885773)
(0.181324 -0.05450168 0.03147217)
(0.1459499 -0.04194227 0.05335477)
(0.1024727 -0.02877201 0.06482188)
(0.05857285 -0.01742145 0.06492138)
(0.02207034 -0.008560829 0.05734011)
(-0.0106332 -0.00154922 0.03572143)
(-0.04302 0.0009980542 0.03045569)
(-0.06958918 0.002400229 0.02398581)
(-0.09425626 0.003300625 0.01852527)
(-0.1196329 0.00370395 0.01238213)
(-0.1486702 0.003380536 0.01078775)
(-0.1599449 0.001268228 -0.0212904)
(-0.01135103 0.0003424703 -0.05227811)
(-0.01814901 0.0007073808 -0.05209204)
(-0.01945229 0.0009266487 -0.05237149)
(-0.01783617 0.001045578 -0.05365468)
(-0.01375069 0.001096665 -0.05721462)
(-0.00574811 0.0007488399 -0.06216276)
(0.006948333 -0.002992009 -0.07730237)
(0.01517041 -0.01045488 -0.1044428)
(0.02495188 -0.01688619 -0.1195616)
(0.04211856 -0.0231844 -0.1298768)
(0.06347958 -0.03001914 -0.1343034)
(0.08804479 -0.03774871 -0.1324492)
(0.1148413 -0.04647573 -0.1241197)
(0.1422632 -0.05594016 -0.1090343)
(0.1677958 -0.06528274 -0.08726764)
(0.1879905 -0.07286906 -0.05964117)
(0.1986733 -0.07639763 -0.02820215)
(0.1944504 -0.07344453 0.004977549)
(0.1723983 -0.06336121 0.03438682)
(0.1366838 -0.04886555 0.05604052)
(0.09377757 -0.03352486 0.06715696)
(0.05160123 -0.02012959 0.06703177)
(0.01787444 -0.009593823 0.05940763)
(-0.01155612 -0.00151687 0.03731916)
(-0.04073539 0.001520079 0.03234568)
(-0.06444585 0.00326297 0.02606055)
(-0.08686248 0.004423562 0.02062727)
(-0.1108006 0.004986283 0.01429964)
(-0.1393096 0.004608439 0.01200986)
(-0.1524536 0.001649092 -0.0199572)
(-0.01042049 0.0005416355 -0.05132251)
(-0.01639224 0.001063761 -0.05124922)
(-0.01739824 0.001334431 -0.0515083)
(-0.01598441 0.001452036 -0.0526081)
(-0.01262194 0.001526865 -0.05573062)
(-0.004659217 0.001380452 -0.06036336)
(0.004574853 -0.002367407 -0.08027148)
(0.01021343 -0.01042921 -0.1008825)
(0.02003963 -0.01803911 -0.1141343)
(0.03605036 -0.02537994 -0.1243086)
(0.05630078 -0.03322952 -0.129112)
(0.08006658 -0.04217089 -0.1279444)
(0.1063874 -0.05238123 -0.1203163)
(0.1336368 -0.06354434 -0.1057819)
(0.1591847 -0.07460329 -0.08432375)
(0.1793921 -0.08359251 -0.0567607)
(0.1898756 -0.08780775 -0.02526215)
(0.1849367 -0.0843869 0.008114364)
(0.1622423 -0.07282392 0.03717761)
(0.1264439 -0.05619005 0.05840009)
(0.08455881 -0.03853042 0.06899843)
(0.04468539 -0.0229683 0.06861338)
(0.01433612 -0.0106059 0.06107327)
(-0.01124869 -0.001426719 0.03884367)
(-0.03666367 0.002099236 0.03431994)
(-0.05693743 0.00419909 0.02838658)
(-0.07650642 0.00566037 0.0231592)
(-0.09844643 0.006451782 0.0167983)
(-0.1260509 0.006080238 0.01370984)
(-0.1417395 0.002018101 -0.01797131)
(-0.009001839 0.0008128875 -0.04947382)
(-0.01383161 0.001501726 -0.0495079)
(-0.01447306 0.001796785 -0.04966307)
(-0.01329048 0.001897667 -0.05029963)
(-0.01086581 0.002066963 -0.05239804)
(-0.006245683 0.002376056 -0.05617997)
(0.003855839 -0.001245099 -0.06409727)
(0.009315145 -0.01044083 -0.09101461)
(0.01558135 -0.01930542 -0.1049368)
(0.02988015 -0.0273731 -0.1157507)
(0.04886501 -0.03604553 -0.1216982)
(0.0715859 -0.04620739 -0.1218036)
(0.09715888 -0.05809271 -0.1153706)
(0.1239838 -0.07125856 -0.1017868)
(0.1493486 -0.08436849 -0.08094691)