/*--------------------------------*- C++ -*----------------------------------*\
| =========                 |                                                 |
| \\      /  F ield         | OpenFOAM: The Open Source CFD Toolbox           |
|  \\    /   O peration     | Version:  2506                                  |
|   \\  /    A nd           | Website:  www.openfoam.com                      |
|    \\/     M anipulation  |                                                 |
\*---------------------------------------------------------------------------*/
FoamFile
{
    version     2.0;
    format      ascii;
    arch        "LSB;label=32;scalar=64";
    class       volScalarField;
    location    "500/floor";
    object      damage;
}
// * * * * * * * * * * * * * * * * * * * * * * * * * * * * * * * * * * * * * //

dimensions      [0 0 0 0 0 0 0];

internalField   nonuniform List<scalar> 
2700
(
0.001122699
0.001122775
0.001122845
0.001122909
0.001122966
0.001123017
0.001123062
0.001123102
0.001123136
0.001123166
0.001123189
0.001123207
0.00112322
0.00112323
0.001123235
0.001123235
0.00112323
0.001123221
0.001123207
0.001123189
0.001123165
0.001123135
0.0011231
0.001123059
0.001123012
0.001122959
0.001122899
0.001122832
0.001122758
0.001122682
0.001122774
0.00112285
0.00112292
0.001122984
0.00112304
0.001123089
0.001123133
0.00112317
0.001123203
0.00112323
0.001123252
0.001123269
0.001123281
0.00112329
0.001123295
0.001123295
0.001123291
0.001123282
0.001123269
0.001123251
0.001123228
0.001123199
0.001123165
0.001123126
0.00112308
0.001123028
0.00112297
0.001122904
0.001122832
0.001122757
0.001122847
0.001122922
0.001122991
0.001123053
0.001123108
0.001123156
0.001123197
0.001123233
0.001123264
0.00112329
0.001123311
0.001123327
0.001123339
0.001123347
0.001123352
0.001123352
0.001123348
0.001123339
0.001123327
0.00112331
0.001123287
0.00112326
0.001123227
0.001123189
0.001123145
0.001123094
0.001123037
0.001122973
0.001122902
0.001122829
0.001122913
0.001122986
0.001123055
0.001123115
0.001123168
0.001123214
0.001123254
0.001123289
0.001123318
0.001123343
0.001123362
0.001123378
0.001123389
0.001123397
0.001123401
0.001123401
0.001123397
0.00112339
0.001123378
0.001123361
0.00112334
0.001123314
0.001123282
0.001123245
0.001123203
0.001123154
0.001123098
0.001123036
0.001122966
0.001122894
0.001122972
0.001123044
0.001123111
0.001123169
0.001123221
0.001123266
0.001123304
0.001123337
0.001123365
0.001123389
0.001123407
0.001123422
0.001123433
0.00112344
0.001123444
0.001123444
0.001123441
0.001123433
0.001123422
0.001123406
0.001123386
0.001123361
0.001123331
0.001123295
0.001123253
0.001123206
0.001123152
0.001123091
0.001123023
0.001122953
0.001123025
0.001123096
0.001123161
0.001123218
0.001123267
0.00112331
0.001123348
0.001123379
0.001123406
0.001123428
0.001123446
0.00112346
0.00112347
0.001123477
0.001123481
0.001123481
0.001123478
0.001123471
0.00112346
0.001123445
0.001123425
0.001123401
0.001123372
0.001123338
0.001123298
0.001123252
0.001123199
0.00112314
0.001123074
0.001123005
0.001123071
0.00112314
0.001123204
0.001123259
0.001123308
0.001123349
0.001123385
0.001123415
0.001123441
0.001123462
0.001123479
0.001123492
0.001123502
0.001123509
0.001123512
0.001123512
0.001123509
0.001123503
0.001123492
0.001123478
0.001123459
0.001123436
0.001123408
0.001123375
0.001123336
0.001123292
0.001123241
0.001123183
0.001123118
0.00112305
0.001123111
0.001123179
0.001123242
0.001123296
0.001123342
0.001123383
0.001123417
0.001123446
0.001123471
0.001123491
0.001123507
0.001123519
0.001123529
0.001123535
0.001123538
0.001123539
0.001123536
0.001123529
0.00112352
0.001123506
0.001123488
0.001123466
0.001123439
0.001123407
0.001123369
0.001123326
0.001123276
0.00112322
0.001123156
0.001123089
0.001123146
0.001123213
0.001123274
0.001123327
0.001123372
0.001123411
0.001123444
0.001123472
0.001123496
0.001123515
0.00112353
0.001123542
0.001123551
0.001123557
0.00112356
0.00112356
0.001123558
0.001123552
0.001123543
0.001123529
0.001123512
0.001123491
0.001123465
0.001123434
0.001123397
0.001123355
0.001123307
0.001123251
0.001123189
0.001123124
0.001123175
0.001123241
0.001123301
0.001123352
0.001123397
0.001123435
0.001123467
0.001123494
0.001123516
0.001123535
0.001123549
0.00112356
0.001123569
0.001123575
0.001123578
0.001123578
0.001123576
0.00112357
0.001123561
0.001123549
0.001123532
0.001123512
0.001123486
0.001123456
0.001123421
0.001123379
0.001123332
0.001123278
0.001123217
0.001123152
0.001123199
0.001123264
0.001123323
0.001123373
0.001123417
0.001123454
0.001123485
0.001123511
0.001123533
0.00112355
0.001123564
0.001123575
0.001123583
0.001123589
0.001123592
0.001123592
0.00112359
0.001123585
0.001123576
0.001123564
0.001123548
0.001123528
0.001123504
0.001123474
0.001123439
0.001123399
0.001123352
0.001123299
0.001123239
0.001123175
0.001123218
0.001123282
0.00112334
0.001123389
0.001123432
0.001123468
0.001123499
0.001123524
0.001123545
0.001123562
0.001123576
0.001123586
0.001123594
0.0011236
0.001123603
0.001123603
0.001123601
0.001123596
0.001123588
0.001123576
0.001123561
0.001123541
0.001123517
0.001123487
0.001123453
0.001123413
0.001123367
0.001123315
0.001123255
0.001123193
0.001123265
0.001123297
0.001123352
0.001123401
0.001123443
0.001123479
0.001123509
0.001123534
0.001123555
0.001123571
0.001123585
0.001123595
0.001123602
0.001123608
0.001123611
0.001123611
0.001123609
0.001123604
0.001123596
0.001123585
0.00112357
0.00112355
0.001123524
0.00112346
0.001123424
0.001123385
0.001123339
0.001123287
0.001123231
0.001123203
0.001123854
0.001123338
0.001123362
0.00112341
0.001123451
0.001123486
0.001123516
0.00112354
0.001123561
0.001123577
0.00112359
0.0011236
0.001123608
0.001123613
0.001123616
0.001123616
0.001123614
0.00112361
0.001123602
0.00112359
0.001123575
0.001123555
0.001123495
0.001122819
0.001122748
0.001122708
0.001122664
0.001122613
0.001122589
0.001123138
0.001123892
0.001123345
0.001123366
0.001123414
0.001123455
0.00112349
0.001123519
0.001123543
0.001123564
0.00112358
0.001123593
0.001123603
0.00112361
0.001123615
0.001123618
0.001123619
0.001123617
0.001123612
0.001123604
0.001123593
0.001123578
0.001123558
0.001123496
0.001122785
0.001122713
0.001122673
0.001122628
0.001122577
0.001122521
0.001122494
0.001123893
0.001123345
0.001123366
0.001123413
0.001123455
0.00112349
0.001123519
0.001123543
0.001123564
0.00112358
0.001123593
0.001123603
0.00112361
0.001123615
0.001123618
0.001123619
0.001123617
0.001123612
0.001123604
0.001123593
0.001123578
0.001123558
0.001123496
0.001122784
0.001122711
0.001122671
0.001122627
0.001122575
0.001122517
0.001122457
0.001123887
0.00112334
0.001123362
0.001123409
0.001123451
0.001123486
0.001123516
0.00112354
0.001123561
0.001123577
0.00112359
0.0011236
0.001123608
0.001123613
0.001123616
0.001123616
0.001123614
0.001123609
0.001123602
0.00112359
0.001123575
0.001123555
0.001123492
0.00112278
0.001122708
0.001122667
0.001122623
0.001122571
0.001122512
0.001122451
0.001123844
0.001123329
0.001123353
0.001123401
0.001123443
0.001123479
0.001123509
0.001123534
0.001123554
0.001123571
0.001123584
0.001123595
0.001123602
0.001123608
0.001123611
0.001123611
0.001123609
0.001123604
0.001123596
0.001123585
0.001123569
0.001123549
0.001123486
0.001122775
0.001122702
0.001122661
0.001122616
0.001122564
0.001122505
0.001122443
0.001123251
0.001123284
0.001123339
0.001123389
0.001123432
0.001123468
0.001123498
0.001123524
0.001123545
0.001123562
0.001123576
0.001123586
0.001123594
0.0011236
0.001123603
0.001123603
0.001123601
0.001123596
0.001123587
0.001123576
0.00112356
0.001123539
0.001123478
0.001122801
0.00112273
0.001122689
0.001122643
0.001122591
0.001122531
0.001122469
0.0011232
0.001123263
0.001123322
0.001123373
0.001123416
0.001123453
0.001123484
0.00112351
0.001123532
0.00112355
0.001123564
0.001123575
0.001123583
0.001123589
0.001123592
0.001123592
0.001123589
0.001123584
0.001123576
0.001123564
0.001123548
0.001123528
0.001123501
0.001123435
0.001123398
0.001123358
0.001123311
0.001123258
0.001123198
0.001123134
0.001123175
0.00112324
0.0011233
0.001123352
0.001123396
0.001123434
0.001123466
0.001123493
0.001123516
0.001123534
0.001123549
0.00112356
0.001123568
0.001123574
0.001123577
0.001123577
0.001123575
0.001123569
0.001123561
0.001123548
0.001123531
0.001123511
0.001123486
0.001123454
0.001123419
0.001123377
0.00112333
0.001123276
0.001123216
0.00112315
0.001123145
0.001123212
0.001123273
0.001123326
0.001123371
0.00112341
0.001123444
0.001123471
0.001123495
0.001123514
0.001123529
0.001123541
0.00112355
0.001123556
0.001123559
0.001123559
0.001123557
0.001123551
0.001123542
0.001123528
0.001123511
0.00112349
0.001123464
0.001123433
0.001123396
0.001123354
0.001123306
0.001123252
0.001123219
0.001123125
0.00112311
0.001123178
0.001123241
0.001123295
0.001123341
0.001123382
0.001123416
0.001123445
0.00112347
0.00112349
0.001123506
0.001123518
0.001123527
0.001123534
0.001123537
0.001123537
0.001123534
0.001123528
0.001123518
0.001123505
0.001123487
0.001123465
0.001123438
0.001123406
0.001123368
0.001123325
0.001123276
0.00112325
0.001123704
0.001123121
0.00112307
0.001123139
0.001123203
0.001123258
0.001123306
0.001123348
0.001123384
0.001123414
0.00112344
0.001123461
0.001123477
0.001123491
0.0011235
0.001123507
0.001123511
0.001123511
0.001123507
0.001123501
0.001123491
0.001123476
0.001123458
0.001123435
0.001123407
0.001123374
0.001123335
0.00112329
0.001123239
0.001123183
0.001123148
0.001123051
0.001123024
0.001123094
0.001123159
0.001123216
0.001123266
0.001123309
0.001123346
0.001123377
0.001123404
0.001123426
0.001123444
0.001123458
0.001123468
0.001123475
0.001123479
0.001123479
0.001123476
0.001123469
0.001123458
0.001123443
0.001123424
0.0011234
0.001123371
0.001123336
0.001123296
0.00112325
0.001123198
0.001123139
0.001123073
0.001123003
0.001122971
0.001123043
0.001123109
0.001123168
0.001123219
0.001123264
0.001123302
0.001123335
0.001123363
0.001123386
0.001123405
0.00112342
0.001123431
0.001123438
0.001123442
0.001123442
0.001123438
0.001123431
0.00112342
0.001123404
0.001123384
0.001123359
0.001123328
0.001123293
0.001123251
0.001123204
0.00112315
0.001123089
0.001123022
0.001122951
0.001122911
0.001122984
0.001123053
0.001123113
0.001123166
0.001123212
0.001123252
0.001123286
0.001123316
0.00112334
0.00112336
0.001123375
0.001123387
0.001123395
0.001123399
0.001123399
0.001123395
0.001123387
0.001123375
0.001123359
0.001123338
0.001123311
0.00112328
0.001123243
0.0011232
0.001123151
0.001123096
0.001123034
0.001122964
0.001122892
0.001122845
0.001122919
0.001122989
0.001123051
0.001123105
0.001123153
0.001123195
0.001123231
0.001123261
0.001123287
0.001123308
0.001123324
0.001123336
0.001123345
0.001123349
0.001123349
0.001123345
0.001123337
0.001123324
0.001123307
0.001123285
0.001123258
0.001123225
0.001123187
0.001123142
0.001123092
0.001123035
0.001122971
0.0011229
0.001122827
0.001122772
0.001122847
0.001122918
0.001122981
0.001123037
0.001123087
0.00112313
0.001123167
0.0011232
0.001123227
0.001123249
0.001123266
0.001123278
0.001123287
0.001123292
0.001123292
0.001123288
0.001123279
0.001123266
0.001123248
0.001123225
0.001123196
0.001123163
0.001123123
0.001123077
0.001123025
0.001122967
0.001122902
0.001122829
0.001122755
0.001122696
0.001122772
0.001122842
0.001122906
0.001122963
0.001123014
0.001123059
0.001123099
0.001123133
0.001123163
0.001123186
0.001123204
0.001123217
0.001123226
0.001123231
0.001123231
0.001123227
0.001123218
0.001123204
0.001123185
0.001123162
0.001123132
0.001123097
0.001123056
0.001123009
0.001122956
0.001122896
0.001122829
0.001122756
0.00112268
0.000145019
0.0001458175
0.0001465417
0.0001471942
0.0001477838
0.0001483084
0.0001487707
0.0001491782
0.0001495345
0.0001498403
0.0001500846
0.0001502693
0.0001504093
0.0001505057
0.0001505558
0.000150557
0.0001505111
0.0001504188
0.000150278
0.0001500873
0.0001498423
0.0001495398
0.0001491791
0.0001487596
0.000148277
0.0001477294
0.0001471133
0.0001464261
0.0001456673
0.0001448765
0.0001458064
0.0001466023
0.0001473307
0.00014798
0.0001485579
0.0001490682
0.0001495145
0.0001499005
0.000150234
0.0001505146
0.0001507402
0.0001509156
0.000151049
0.0001511408
0.0001511883
0.0001511895
0.0001511458
0.0001510576
0.0001509224
0.0001507387
0.0001505026
0.0001502109
0.0001498621
0.0001494552
0.0001489863
0.0001484524
0.0001478504
0.0001471776
0.000146433
0.0001456539
0.0001465584
0.0001473427
0.0001480593
0.0001486943
0.0001492561
0.0001497498
0.0001501794
0.0001505489
0.0001508669
0.0001511331
0.0001513469
0.0001515136
0.0001516403
0.0001517273
0.0001517723
0.0001517735
0.0001517322
0.0001516484
0.0001515192
0.000151343
0.0001511165
0.0001508363
0.0001505002
0.0001501069
0.0001496526
0.0001491338
0.0001485475
0.0001478905
0.0001471611
0.0001463958
0.0001472382
0.0001480088
0.0001487103
0.0001493291
0.0001498742
0.0001503511
0.0001507645
0.0001511187
0.0001514223
0.0001516756
0.0001518787
0.0001520369
0.000152157
0.0001522394
0.000152282
0.0001522833
0.0001522443
0.000152165
0.000152042
0.0001518735
0.0001516565
0.0001513879
0.0001510647
0.000150685
0.0001502454
0.0001497422
0.0001491718
0.0001485309
0.0001478173
0.0001470664
0.0001478474
0.0001486038
0.0001492895
0.0001498917
0.00015042
0.0001508805
0.000151278
0.0001516173
0.000151907
0.0001521479
0.0001523407
0.0001524908
0.0001526044
0.0001526825
0.0001527228
0.0001527242
0.0001526877
0.0001526128
0.0001524959
0.000152335
0.0001521275
0.0001518701
0.0001515596
0.0001511933
0.0001507681
0.0001502802
0.0001497257
0.0001491008
0.000148403
0.0001476668
0.0001483883
0.0001491306
0.0001498007
0.0001503866
0.0001508986
0.0001513431
0.0001517254
0.0001520505
0.0001523268
0.0001525559
0.0001527388
0.000152881
0.0001529886
0.0001530625
0.0001531009
0.0001531025
0.0001530684
0.0001529978
0.0001528869
0.0001527333
0.0001525348
0.0001522883
0.0001519899
0.0001516365
0.0001512252
0.0001507521
0.0001502129
0.0001496036
0.0001489212
0.0001481993
0.0001488635
0.0001495923
0.0001502473
0.0001508177
0.0001513142
0.0001517436
0.0001521115
0.0001524232
0.000152687
0.000152905
0.0001530787
0.0001532136
0.0001533155
0.0001533857
0.0001534224
0.0001534243
0.0001533925
0.000153326
0.0001532207
0.000153074
0.000152884
0.0001526477
0.0001523606
0.0001520192
0.000151621
0.0001511618
0.0001506372
0.0001500426
0.000149375
0.0001486668
0.0001492761
0.0001499922
0.0001506331
0.0001511891
0.0001516711
0.0001520866
0.0001524411
0.0001527405
0.0001529928
0.0001532006
0.0001533659
0.0001534941
0.0001535909
0.0001536578
0.000153693
0.0001536951
0.0001536656
0.0001536029
0.0001535029
0.0001533626
0.0001531804
0.0001529534
0.0001526767
0.0001523462
0.00015196
0.0001515137
0.0001510024
0.0001504216
0.0001497677
0.0001490724
0.0001496326
0.0001503367
0.0001509644
0.0001515068
0.0001519754
0.0001523776
0.0001527198
0.0001530077
0.0001532495
0.0001534478
0.0001536054
0.0001537274
0.0001538196
0.0001538836
0.0001539174
0.00015392
0.0001538927
0.0001538336
0.0001537384
0.0001536041
0.0001534292
0.0001532107
0.0001529435
0.0001526233
0.0001522483
0.0001518139
0.0001513152
0.0001507473
0.0001501063
0.000149423
0.0001499326
0.000150626
0.0001512418
0.000151772
0.0001522285
0.0001526192
0.0001529503
0.000153228
0.0001534603
0.0001536503
0.0001538011
0.0001539177
0.0001540059
0.0001540674
0.0001541001
0.0001541031
0.0001540778
0.0001540221
0.0001539313
0.0001538023
0.0001536338
0.0001534229
0.0001531642
0.000152853
0.0001524878
0.000152064
0.0001515764
0.0001510199
0.0001503904
0.000149718
0.0001501757
0.00015086
0.0001514659
0.000151986
0.0001524325
0.0001528134
0.0001531354
0.0001534046
0.000153629
0.000153812
0.0001539571
0.0001540693
0.0001541542
0.0001542136
0.0001542455
0.000154249
0.0001542254
0.0001541727
0.0001540856
0.0001539611
0.000153798
0.0001535933
0.0001533415
0.0001530374
0.0001526803
0.0001522652
0.0001517867
0.0001512396
0.0001506195
0.0001499562
0.0001503735
0.0001510432
0.0001516408
0.0001521529
0.0001525914
0.0001529645
0.000153279
0.0001535413
0.0001537594
0.0001539369
0.0001540773
0.0001541859
0.0001542682
0.0001543261
0.0001543574
0.0001543614
0.0001543394
0.0001542891
0.0001542051
0.0001540842
0.0001539253
0.0001537255
0.0001534786
0.0001531719
0.0001528206
0.0001524123
0.0001519411
0.0001514014
0.0001507892
0.0001501412
0.0001507992
0.0001511959
0.000151772
0.0001522771
0.0001527092
0.0001530761
0.0001533848
0.0001536417
0.0001538549
0.000154028
0.0001541648
0.0001542707
0.0001543511
0.0001544078
0.0001544387
0.0001544432
0.0001544224
0.000154374
0.0001542925
0.0001541744
0.0001540187
0.0001538223
0.0001535627
0.0001529612
0.0001525979
0.0001521945
0.000151729
0.0001511957
0.000150606
0.0001502538
0.0001570281
0.000151563
0.0001518668
0.0001523597
0.0001527871
0.0001531497
0.0001534544
0.0001537075
0.0001539173
0.0001540875
0.0001542218
0.0001543257
0.0001544048
0.0001544607
0.0001544913
0.0001544961
0.0001544762
0.0001544292
0.0001543495
0.0001542334
0.0001540799
0.0001538777
0.0001533217
0.0001461736
0.0001455148
0.0001451069
0.0001446456
0.0001441248
0.0001438216
0.0001497148
0.0001573596
0.0001516248
0.000151911
0.000152401
0.000152826
0.0001531864
0.000153489
0.0001537402
0.0001539481
0.0001541168
0.0001542497
0.0001543526
0.0001544311
0.0001544865
0.000154517
0.000154522
0.0001545025
0.0001544562
0.0001543775
0.0001542624
0.0001541101
0.0001539088
0.0001533374
0.0001458916
0.0001452176
0.0001448111
0.0001443518
0.0001438253
0.0001432424
0.0001428967
0.0001573672
0.0001516249
0.0001519107
0.0001524007
0.0001528258
0.0001531861
0.0001534887
0.0001537399
0.0001539478
0.0001541164
0.0001542494
0.0001543523
0.0001544307
0.0001544861
0.0001545165
0.0001545216
0.0001545021
0.0001544558
0.000154377
0.0001542619
0.0001541096
0.0001539083
0.0001533363
0.000145882
0.0001452075
0.000144801
0.0001443417
0.0001438146
0.0001432153
0.0001425795
0.0001573103
0.0001515778
0.0001518664
0.0001523588
0.0001527862
0.0001531488
0.0001534535
0.0001537066
0.0001539163
0.0001540865
0.0001542207
0.0001543246
0.0001544037
0.0001544595
0.00015449
0.0001544948
0.0001544749
0.0001544278
0.0001543481
0.000154232
0.0001540784
0.0001538756
0.0001533021
0.0001458462
0.0001451699
0.0001447614
0.0001443
0.0001437707
0.0001431685
0.0001425221
0.000156931
0.0001514699
0.0001517782
0.0001522757
0.0001527076
0.0001530745
0.0001533832
0.00015364
0.0001538532
0.0001540263
0.000154163
0.0001542688
0.0001543492
0.0001544058
0.0001544366
0.000154441
0.0001544201
0.0001543717
0.0001542902
0.000154172
0.0001540161
0.0001538106
0.0001532347
0.0001457843
0.000145105
0.0001446928
0.0001442274
0.0001436939
0.0001430875
0.0001424368
0.0001506543
0.0001510566
0.0001516389
0.0001521504
0.0001525888
0.0001529619
0.0001532764
0.0001535386
0.0001537567
0.0001539341
0.0001540744
0.0001541829
0.0001542652
0.000154323
0.0001543542
0.0001543581
0.000154336
0.0001542856
0.0001542016
0.0001540806
0.0001539214
0.0001537126
0.0001531494
0.0001459939
0.0001453267
0.0001449096
0.0001444385
0.0001438991
0.0001432867
0.0001426305
0.00015018
0.0001508566
0.0001514619
0.000151982
0.0001524284
0.0001528092
0.000153131
0.0001534001
0.0001536245
0.0001538073
0.0001539523
0.0001540643
0.0001541491
0.0001542085
0.0001542403
0.0001542437
0.00015422
0.0001541673
0.0001540802
0.0001539556
0.0001537924
0.0001535871
0.0001533178
0.0001527061
0.0001523315
0.0001519159
0.0001514376
0.0001508906
0.0001502708
0.0001496073
0.0001499274
0.0001506204
0.000151236
0.0001517661
0.0001522225
0.000152613
0.000152944
0.0001532215
0.0001534536
0.0001536434
0.0001537941
0.0001539105
0.0001539986
0.00015406
0.0001540926
0.0001540955
0.0001540701
0.0001540144
0.0001539235
0.0001537945
0.000153626
0.0001534151
0.0001531559
0.0001528362
0.0001524706
0.0001520469
0.0001515595
0.0001510037
0.0001503815
0.0001497022
0.0001496255
0.0001503294
0.0001509569
0.000151499
0.0001519673
0.0001523694
0.0001527114
0.000152999
0.0001532406
0.0001534386
0.0001535961
0.0001537179
0.0001538099
0.0001538738
0.0001539075
0.0001539099
0.0001538826
0.0001538235
0.0001537283
0.000153594
0.0001534192
0.0001532008
0.0001529337
0.0001526135
0.0001522387
0.0001518045
0.0001513066
0.0001507537
0.0001503662
0.0001494305
0.000149267
0.0001499828
0.0001506234
0.000151179
0.0001516608
0.0001520759
0.0001524302
0.0001527293
0.0001529813
0.0001531888
0.0001533539
0.0001534818
0.0001535784
0.0001536451
0.0001536802
0.0001536823
0.0001536527
0.00015359
0.00015349
0.0001533498
0.0001531677
0.0001529409
0.0001526643
0.0001523342
0.0001519483
0.0001515023
0.0001509989
0.0001506793
0.0001556345
0.0001493385
0.0001488518
0.0001495803
0.0001502349
0.000150805
0.0001513011
0.0001517301
0.0001520975
0.0001524089
0.0001526723
0.0001528899
0.0001530634
0.0001531979
0.0001532996
0.0001533696
0.0001534062
0.000153408
0.0001533762
0.0001533097
0.0001532045
0.000153058
0.0001528681
0.000152632
0.0001523452
0.0001520041
0.0001516063
0.0001511475
0.0001506238
0.0001500445
0.0001496305
0.00014867
0.0001483742
0.000149116
0.0001497856
0.0001503711
0.0001508826
0.0001513266
0.0001517084
0.0001520331
0.0001523089
0.0001525376
0.0001527201
0.000152862
0.0001529693
0.0001530431
0.0001530813
0.0001530829
0.0001530487
0.0001529782
0.0001528674
0.000152714
0.0001525157
0.0001522695
0.0001519715
0.0001516185
0.0001512076
0.000150735
0.0001501964
0.000149588
0.0001489134
0.0001481848
0.0001478309
0.0001485867
0.0001492719
0.0001498735
0.0001504013
0.0001508612
0.0001512581
0.0001515969
0.0001518861
0.0001521265
0.0001523189
0.0001524685
0.0001525818
0.0001526597
0.0001526999
0.0001527013
0.0001526648
0.0001525899
0.0001524733
0.0001523126
0.0001521053
0.0001518483
0.0001515383
0.0001511724
0.0001507478
0.0001502604
0.0001497065
0.0001490823
0.0001483852
0.0001476494
0.0001472194
0.0001479893
0.0001486901
0.0001493083
0.0001498527
0.0001503291
0.0001507419
0.0001510954
0.0001513985
0.0001516513
0.0001518539
0.0001520117
0.0001521314
0.0001522136
0.000152256
0.0001522573
0.0001522183
0.0001521391
0.0001520164
0.0001518481
0.0001516315
0.0001513633
0.0001510406
0.0001506615
0.0001502224
0.0001497198
0.0001491501
0.0001485099
0.000147797
0.0001470467
0.0001465372
0.0001473207
0.0001480366
0.000148671
0.0001492322
0.0001497252
0.0001501542
0.000150523
0.0001508404
0.0001511061
0.0001513194
0.0001514855
0.0001516118
0.0001516987
0.0001517435
0.0001517446
0.0001517033
0.0001516197
0.0001514907
0.0001513149
0.0001510887
0.000150809
0.0001504735
0.0001500808
0.0001496271
0.000149109
0.0001485234
0.0001478672
0.0001471386
0.000146374
0.0001457833
0.0001465783
0.0001473059
0.0001479545
0.0001485317
0.0001490415
0.0001494871
0.0001498724
0.0001502051
0.0001504859
0.0001507104
0.000150885
0.000151018
0.0001511096
0.0001511569
0.000151158
0.0001511144
0.0001510263
0.0001508913
0.000150708
0.0001504724
0.0001501812
0.0001498329
0.0001494267
0.0001489584
0.0001484253
0.000147824
0.0001471521
0.0001464082
0.00014563
0.0001449951
0.0001457934
0.0001465159
0.0001471692
0.0001477576
0.0001482825
0.0001487434
0.0001491507
0.0001495041
0.000149817
0.0001500548
0.0001502378
0.0001503771
0.0001504731
0.000150523
0.0001505242
0.0001504783
0.0001503862
0.0001502453
0.0001500551
0.0001498107
0.0001495089
0.0001491487
0.0001487296
0.0001482477
0.0001477012
0.0001470858
0.0001463994
0.0001456414
0.0001448516
0.0001559184
0.0001630381
0.0001693839
0.0001750929
0.0001802481
0.0001848331
0.0001888663
0.0001924411
0.0001955549
0.0001982471
0.0002004043
0.000202027
0.0002032583
0.000204108
0.0002045526
0.0002045688
0.0002041718
0.0002033694
0.0002021422
0.0002004805
0.0001983429
0.0001957027
0.0001925525
0.000188889
0.0001846737
0.0001798889
0.0001745053
0.0001685021
0.0001618687
0.0001548294
0.0001629169
0.0001700247
0.0001763978
0.0001820756
0.0001871298
0.0001915938
0.0001954981
0.000198876
0.0002017957
0.0002042543
0.0002062327
0.000207771
0.000208944
0.0002097533
0.000210175
0.0002101901
0.0002098132
0.0002090469
0.0002078692
0.0002062688
0.0002042106
0.0002016655
0.0001986208
0.0001950691
0.0001909747
0.0001863118
0.0001810544
0.0001751789
0.0001686702
0.0001617374
0.0001694913
0.0001764995
0.0001827674
0.000188319
0.0001932327
0.0001975516
0.0002013111
0.0002045452
0.0002073303
0.0002096628
0.000211537
0.0002129986
0.0002141122
0.0002148802
0.0002152793
0.0002152946
0.0002149381
0.0002142102
0.0002130858
0.000211551
0.0002095757
0.000207131
0.0002041981
0.0002007648
0.0001967977
0.0001922681
0.0001871476
0.0001814096
0.0001750348
0.0001682244
0.000175432
0.0001823201
0.0001884569
0.0001938666
0.0001986337
0.0002028064
0.0002064239
0.0002095239
0.0002121832
0.0002144031
0.0002161836
0.0002175715
0.000218627
0.0002193547
0.0002197324
0.0002197488
0.000219413
0.0002187242
0.0002176537
0.0002161855
0.0002142936
0.0002119498
0.0002091294
0.000205815
0.0002019762
0.000197582
0.0001926011
0.0001870037
0.0001807668
0.0001740844
0.0001807552
0.0001875185
0.0001935182
0.0001987835
0.0002034042
0.0002074328
0.0002109117
0.0002138821
0.0002164193
0.0002185307
0.0002202211
0.0002215375
0.0002225369
0.0002232262
0.0002235848
0.0002236025
0.0002232876
0.0002226374
0.0002216204
0.0002202183
0.0002184085
0.0002161635
0.0002134536
0.0002102556
0.0002065431
0.0002022827
0.0001974403
0.0001919829
0.0001858842
0.0001793312
0.0001854813
0.0001921212
0.0001979846
0.0002031082
0.0002075866
0.0002114758
0.0002148215
0.0002176678
0.000220088
0.000222096
0.0002237005
0.0002249487
0.000225895
0.0002265485
0.0002268903
0.0002269096
0.0002266159
0.0002260031
0.0002250378
0.0002236998
0.0002219689
0.0002198184
0.0002172143
0.0002141281
0.000210537
0.0002064055
0.0002016971
0.0001963756
0.0001904118
0.0001839858
0.000189634
0.0001961548
0.0002018873
0.0002068756
0.0002112187
0.0002149761
0.0002181963
0.0002209257
0.0002232367
0.0002251477
0.0002266721
0.0002278564
0.0002287536
0.0002293744
0.0002297016
0.0002297231
0.00022945
0.0002288728
0.0002279566
0.0002266787
0.0002250219
0.00022296
0.0002204545
0.0002174731
0.000213996
0.000209986
0.0002054043
0.000200212
0.0001943768
0.0001880725
0.0001932395
0.000199648
0.0002052578
0.0002101202
0.0002143379
0.0002179733
0.0002210777
0.0002236994
0.0002259105
0.0002277322
0.0002291836
0.0002303096
0.0002311625
0.0002317546
0.0002320688
0.000232093
0.0002318397
0.000231296
0.0002304251
0.0002292027
0.0002276138
0.0002256328
0.0002232174
0.0002203318
0.0002169592
0.0002130608
0.0002085957
0.000203523
0.0001978081
0.0001916183
0.0001963554
0.0002026582
0.0002081527
0.0002128966
0.0002169964
0.0002205175
0.0002235138
0.0002260357
0.0002281546
0.0002298941
0.0002312782
0.0002323509
0.0002331639
0.0002337307
0.0002340333
0.0002340609
0.0002338267
0.000233315
0.0002324865
0.0002313158
0.0002297901
0.0002278836
0.0002255512
0.0002227543
0.000219479
0.0002156853
0.0002113299
0.0002063695
0.0002007667
0.000194684
0.0001989772
0.0002051851
0.000210576
0.0002152139
0.0002192087
0.0002226282
0.0002255283
0.0002279611
0.0002299982
0.0002316649
0.0002329895
0.0002340157
0.0002347939
0.0002353396
0.0002356325
0.0002356642
0.0002354476
0.0002349651
0.0002341749
0.0002330502
0.0002315803
0.0002297397
0.0002274809
0.0002247626
0.0002215733
0.0002178716
0.000213613
0.0002087522
0.0002032498
0.0001972631
0.0002010997
0.0002072285
0.0002125335
0.0002170835
0.0002209909
0.0002243258
0.0002271459
0.0002295048
0.0002314736
0.0002330799
0.0002343548
0.0002353422
0.0002360921
0.0002366204
0.0002369062
0.0002369424
0.0002367412
0.0002362843
0.0002355269
0.0002344411
0.0002330177
0.0002312311
0.0002290322
0.0002263768
0.0002232574
0.0002196312
0.000215452
0.0002106731
0.0002052531
0.0001993461
0.0002027967
0.0002088263
0.0002140613
0.0002185412
0.0002223788
0.0002256458
0.0002284013
0.0002307005
0.0002326143
0.0002341728
0.0002354071
0.0002363638
0.0002370917
0.0002376065
0.0002378875
0.0002379287
0.0002377411
0.0002373054
0.0002365746
0.0002355199
0.0002341329
0.0002323892
0.0002302352
0.0002275881
0.0002245217
0.0002209549
0.0002168384
0.000212124
0.0002067709
0.0002009669
0.0002057274
0.0002101
0.000215205
0.0002196267
0.0002234087
0.0002266219
0.0002293267
0.0002315791
0.0002334498
0.0002349709
0.0002361739
0.000237107
0.0002378188
0.0002383233
0.000238601
0.0002386464
0.0002384696
0.0002380507
0.0002373416
0.0002363115
0.0002349529
0.0002332404
0.0002310391
0.000226633
0.0002235256
0.0002200033
0.0002159366
0.0002112761
0.0002060568
0.0002020559
0.0002627055
0.0002125483
0.0002160046
0.0002203488
0.0002240909
0.0002272666
0.0002299359
0.0002321558
0.000233997
0.0002354926
0.0002366739
0.0002375903
0.0002382908
0.0002387882
0.0002390637
0.0002391124
0.0002389434
0.0002385365
0.000237843
0.0002368303
0.0002354909
0.0002337598
0.0002297857
0.000164507
0.0001596335
0.0001561044
0.0001520753
0.0001474934
0.0001440262
0.0001991102
0.0002648137
0.0002130288
0.0002163888
0.0002207097
0.0002244315
0.0002275879
0.0002302391
0.0002324422
0.0002342674
0.0002357493
0.0002369194
0.000237827
0.0002385215
0.0002390153
0.0002392898
0.0002393403
0.0002391754
0.0002387749
0.0002380894
0.0002370856
0.0002357567
0.0002340357
0.000229991
0.0001629277
0.0001579856
0.000154471
0.0001504595
0.0001458576
0.0001406978
0.0001367552
0.0002648498
0.0002130281
0.0002163861
0.0002207071
0.000224429
0.0002275853
0.0002302364
0.0002324393
0.0002342644
0.0002357462
0.0002369161
0.0002378236
0.000238518
0.0002390117
0.000239286
0.0002393364
0.0002391714
0.0002387707
0.0002380852
0.0002370812
0.0002357523
0.0002340312
0.0002299839
0.0001628786
0.000157934
0.0001544193
0.0001504077
0.0001458035
0.0001405623
0.0001348665
0.0002643822
0.0002126179
0.0002159989
0.0002203409
0.000224083
0.0002272586
0.0002299279
0.0002321477
0.0002339886
0.0002354838
0.0002366647
0.0002375808
0.0002382808
0.0002387778
0.0002390528
0.0002391011
0.0002389318
0.0002385247
0.0002378309
0.0002368178
0.0002354782
0.0002337445
0.0002296837
0.0001625645
0.0001576041
0.0001540724
0.0001500426
0.0001454189
0.0001401553
0.0001343978
0.0002618564
0.0002117351
0.0002152303
0.000219614
0.0002233951
0.0002266081
0.0002293126
0.0002315647
0.0002334352
0.0002349559
0.0002361583
0.0002370909
0.0002378021
0.0002383059
0.0002385828
0.0002386277
0.0002384503
0.000238031
0.0002373215