/*--------------------------------*- C++ -*----------------------------------*\
| =========                 |                                                 |
| \\      /  F ield         | OpenFOAM: The Open Source CFD Toolbox           |
|  \\    /   O peration     | Version:  2506                                  |
|   \\  /    A nd           | Website:  www.openfoam.com                      |
|    \\/     M anipulation  |                                                 |
\*---------------------------------------------------------------------------*/
FoamFile
{
    version     2.0;
    format      ascii;
    arch        "LSB;label=32;scalar=64";
    class       volScalarField;
    location    "120/panel";
    object      T;
}
// * * * * * * * * * * * * * * * * * * * * * * * * * * * * * * * * * * * * * //

dimensions      [0 0 0 1 0 0 0];

internalField   nonuniform List<scalar> 
119440
(
300.2572
300.2518
300.2343
300.2342
300.2391
300.2386
300.235
300.236
300.2376
300.2379
300.2366
300.2356
300.2351
300.2355
300.4284
300.2396
300.1905
300.2344
300.2177
300.1856
300.1739
300.2175
300.2218
300.1738
300.1737
300.2214
300.2183
300.1737
300.1735
300.2191
300.2206
300.1735
300.1737
300.2208
300.2197
300.1737
300.1739
300.2189
300.2186
300.1739
300.1753
300.219
300.4045
300.1757
300.3389
300.1896
300.1772
300.1847
300.173
300.1725
300.1606
300.1728
300.1727
300.1605
300.16
300.1727
300.1725
300.16
300.1598
300.1725
300.1727
300.1599
300.1601
300.1727
300.1729
300.1601
300.1604
300.1729
300.1743
300.1604
300.1625
300.1747
300.3382
300.163
300.3231
300.1765
300.1671
300.1719
300.1599
300.1628
300.1511
300.1598
300.1593
300.1509
300.1501
300.1593
300.1591
300.1501
300.15
300.1592
300.1594
300.15
300.1502
300.1594
300.1597
300.1502
300.1507
300.1597
300.1619
300.1507
300.1536
300.1624
300.3224
300.1541
300.3084
300.1666
300.159
300.1623
300.1506
300.155
300.1437
300.1504
300.1496
300.1436
300.1425
300.1496
300.1494
300.1425
300.1423
300.1495
300.1497
300.1424
300.1426
300.1497
300.1501
300.1426
300.1432
300.1502
300.1531
300.1433
300.1467
300.1536
300.3078
300.1472
300.2921
300.1586
300.1521
300.1545
300.1433
300.1483
300.1376
300.1431
300.1421
300.1374
300.1362
300.1421
300.1419
300.1362
300.136
300.1419
300.1422
300.136
300.1363
300.1422
300.1428
300.1363
300.1371
300.1429
300.1463
300.1372
300.1408
300.1468
300.2901
300.1414
300.2807
300.1517
300.1459
300.1479
300.1372
300.1423
300.1322
300.137
300.1359
300.132
300.1308
300.1358
300.1357
300.1307
300.1305
300.1357
300.1359
300.1305
300.1308
300.1359
300.1367
300.1308
300.1318
300.1368
300.1405
300.1319
300.1357
300.1411
300.2801
300.1363
300.2755
300.1455
300.1403
300.142
300.1319
300.137
300.1274
300.1317
300.1305
300.1272
300.1259
300.1304
300.1302
300.1259
300.1257
300.1302
300.1305
300.1257
300.126
300.1305
300.1315
300.126
300.1271
300.1316
300.1354
300.1272
300.1311
300.136
300.2743
300.1317
300.2627
300.14
300.1352
300.1366
300.1271
300.1321
300.123
300.1269
300.1257
300.1228
300.1216
300.1256
300.1254
300.1216
300.1213
300.1254
300.1257
300.1214
300.1217
300.1257
300.1268
300.1217
300.1228
300.1269
300.1309
300.123
300.127
300.1314
300.2619
300.1275
300.255
300.1349
300.1306
300.1318
300.1227
300.1276
300.1191
300.1226
300.1213
300.1189
300.1177
300.1213
300.1211
300.1177
300.1175
300.1211
300.1214
300.1175
300.1178
300.1215
300.1226
300.1179
300.1191
300.1227
300.1267
300.1192
300.1232
300.1273
300.254
300.1237
300.2494
300.1303
300.1266
300.1274
300.1188
300.1238
300.1157
300.1187
300.1175
300.1155
300.1144
300.1175
300.1173
300.1143
300.1142
300.1173
300.1176
300.1142
300.1146
300.1177
300.1188
300.1146
300.1158
300.119
300.123
300.116
300.1199
300.1235
300.2478
300.1204
300.2406
300.1263
300.1234
300.1236
300.1155
300.1208
300.1133
300.1153
300.1142
300.1132
300.1122
300.1142
300.114
300.1122
300.112
300.114
300.1144
300.112
300.1125
300.1144
300.1157
300.1125
300.1138
300.1158
300.1197
300.1139
300.1178
300.1203
300.2402
300.1183
300.2363
300.1233
300.1946
300.1207
300.1133
300.1914
300.1831
300.1131
300.1121
300.1824
300.1834
300.1121
300.112
300.1835
300.181
300.112
300.1124
300.1814
300.1851
300.1125
300.1138
300.1858
300.1868
300.1139
300.1177
300.1873
300.1934
300.1182
300.2359
300.1945
300.3216
300.0948
300.128
300.1197
300.1021
300.0938
300.1185
300.1183
300.0939
300.0935
300.1181
300.118
300.0937
300.0935
300.118
300.1179
300.0935
300.0935
300.1178
300.1179
300.0935
300.0936
300.1181
300.1179
300.0935
300.1028
300.1192
300.1283
300.0947
300.0852
300.0952
300.0883
300.0919
300.0841
300.0875
300.0874
300.0842
300.0839
300.0872
300.0872
300.084
300.0839
300.0871
300.0871
300.0839
300.0839
300.0871
300.0871
300.0839
300.0842
300.0872
300.0873
300.084
300.0933
300.0885
300.0963
300.0855
300.0782
300.0872
300.0806
300.0846
300.0769
300.0795
300.0794
300.0771
300.0767
300.0793
300.0792
300.0768
300.0767
300.0792
300.0792
300.0767
300.0767
300.0792
300.0792
300.0767
300.0773
300.0794
300.0796
300.0769
300.0865
300.0812
300.0889
300.0789
300.0729
300.0809
300.0747
300.0789
300.0714
300.0735
300.0733
300.0717
300.0712
300.0732
300.0731
300.0713
300.0712
300.0731
300.0731
300.0712
300.0713
300.0732
300.0732
300.0713
300.0721
300.0735
300.0739
300.0716
300.0811
300.0756
300.083
300.0739
300.0686
300.0759
300.0701
300.0742
300.0671
300.0689
300.0686
300.0673
300.0669
300.0685
300.0684
300.0669
300.0669
300.0684
300.0684
300.0668
300.0671
300.0685
300.0686
300.067
300.068
300.069
300.0694
300.0675
300.0767
300.0713
300.0783
300.0699
300.0649
300.0715
300.0662
300.07
300.0634
300.065
300.0647
300.0637
300.0631
300.0645
300.0645
300.0632
300.0632
300.0645
300.0645
300.0631
300.0634
300.0646
300.0648
300.0633
300.0645
300.0652
300.0657
300.0639
300.0728
300.0676
300.0742
300.0663
300.0615
300.0677
300.0628
300.0663
300.0601
300.0616
300.0613
300.0604
300.0599
300.0611
300.0611
300.0599
300.0599
300.0611
300.0611
300.0599
300.0602
300.0612
300.0614
300.0601
300.0613
300.0619
300.0625
300.0608
300.0693
300.0643
300.0706
300.0632
300.0585
300.0641
300.0596
300.0629
300.0571
300.0585
300.0582
300.0574
300.0569
300.058
300.058
300.0569
300.057
300.058
300.058
300.0569
300.0573
300.0582
300.0584
300.0571
300.0585
300.0589
300.0595
300.0579
300.0661
300.0614
300.0673
300.0603
300.0556
300.0609
300.0567
300.0597
300.0544
300.0557
300.0554
300.0546
300.0542
300.0552
300.0552
300.0542
300.0543
300.0552
300.0552
300.0542
300.0547
300.0554
300.0557
300.0545
300.0558
300.0562
300.0568
300.0552
300.0631
300.0586
300.0642
300.0576
300.053
300.0579
300.054
300.0568
300.0519
300.053
300.0528
300.0521
300.0517
300.0526
300.0526
300.0517
300.0518
300.0526
300.0527
300.0517
300.0522
300.0529
300.0531
300.052
300.0534
300.0537
300.0543
300.0528
300.0603
300.056
300.0613
300.0551
300.0507
300.0552
300.0516
300.0542
300.0497
300.0507
300.0504
300.0499
300.0495
300.0503
300.0503
300.0495
300.0497
300.0503
300.0504
300.0496
300.0501
300.0506
300.0509
300.0499
300.0513
300.0515
300.052
300.0507
300.0579
300.0537
300.0587
300.0529
300.051
300.053
300.0497
300.0542
300.0501
300.0489
300.0487
300.0503
300.0501
300.0486
300.0486
300.0501
300.0503
300.0487
300.0488
300.0502
300.0508
300.049
300.0493
300.0506
300.052
300.0499
300.0504
300.0514
300.0584
300.052
300.0568
300.0536
300.6911
300.1678
300.4576
300.3101
300.6694
300.6177
300.4269
300.1494
300.8179
300.4306
300.2931
300.4373
300.1562
300.4503
300.1473
300.4095
300.6105
300.1231
300.2393
300.4231
300.5991
300.1175
300.437
300.1461
300.4361
300.1468
300.4091
300.5983
300.2392
300.1157
300.6018
300.4081
300.1162
300.4354
300.146
300.4359
300.1457
300.4075
300.5984
300.1154
300.2346
300.408
300.5962
300.1153
300.4354
300.1457
300.4351
300.1457
300.4075
300.5995
300.2352
300.1156
300.5977
300.4072
300.1154
300.4352
300.1456
300.4351
300.1455
300.4071
300.5998
300.1154
300.234
300.4072
300.5986
300.1151
300.4352
300.1455
300.435
300.1455
300.4072
300.597
300.2336
300.1151
300.5968
300.407
300.115
300.4348
300.1455
300.435
300.1454
300.4068
300.5974
300.1153
300.2397
300.407
300.5988
300.1154
300.4347
300.1452
300.4346
300.1453
300.4067
300.5981
300.2397
300.1153
300.5998
300.4066
300.1154
300.4347
300.1452
300.4346
300.1454
300.4067
300.5958
300.1153
300.2397
300.4066
300.5982
300.1154
300.4347
300.1456
300.4349
300.1454
300.4067
300.5982
300.2397
300.1153
300.598
300.4068
300.1154
300.435
300.1456
300.4349
300.1453
300.407
300.5992
300.115
300.2338
300.4069
300.5957
300.1149
300.435
300.1461
300.4359
300.1454
300.4071
300.5989
300.2339
300.1154
300.5966
300.408
300.115
300.4495
300.1467
300.4363
300.1562
300.4221
300.5983
300.1166
300.2473
300.4084
300.6087
300.1223
300.4568
300.3115
300.6918
300.1683
300.4297
300.8184
300.2537
300.2949
300.6205
300.6727
300.1495
300.2428
300.1388
300.2899
300.1116
300.2288
300.4049
300.0961
300.1998
300.2736
300.3522
300.0819
300.2412
300.1054
300.1095
300.2338
300.2273
300.1983
300.3335
300.0754
300.3479
300.0777
300.2205
300.0564
300.0736
300.2222
300.1948
300.0687
300.0608
300.1848
300.0944
300.1186
300.1192
300.094
300.0554
300.222
300.0672
300.1828
300.0676
300.1845
300.0551
300.093
300.0963
300.1001
300.0894
300.053
300.1933
300.0555
300.1757
300.0573
300.1834
300.0513
300.0926
300.0886
300.0922
300.089
300.0521
300.1815
300.1754
300.0501
300.1831
300.0518
300.0504
300.055
300.067
300.2181
300.1826
300.067
300.055
300.183
300.0938
300.1182
300.1182
300.0937
300.055
300.2186
300.0671
300.1831
300.0671
300.1831
300.0549
300.092
300.0885
300.0921
300.0884
300.0517
300.1813
300.05
300.1738
300.0517
300.1816
300.05
300.092
300.0883
300.0919
300.0884
300.0517
300.1816
300.1738
300.0499
300.1817
300.0516
300.05
300.0548
300.067
300.2174
300.1831
300.0668
300.0549
300.1821
300.0935
300.118
300.118
300.0935
300.0547
300.217
300.0668
300.1826
300.0667
300.1822
300.0547
300.0918
300.0883
300.0919
300.0882
300.0515
300.1816
300.0499
300.1732
300.0516
300.1808
300.0498
300.0918
300.0882
300.0917
300.0882
300.0515
300.1812
300.1732
300.0498
300.1808
300.0515
300.0498
300.0549
300.067
300.2224
300.1827
300.0671
300.0548
300.1833
300.0935
300.1178
300.1179
300.0935
300.0549
300.2224
300.067
300.1829
300.0671
300.1833
300.0548
300.0917
300.0882
300.0918
300.0882
300.0516
300.1813
300.0498
300.1738
300.0515
300.1817
300.0498
300.0917
300.0882
300.0918
300.0882
300.0515
300.1815
300.1738
300.0498
300.1817
300.0515
300.0498
300.0549
300.067
300.2224
300.1829
300.0671
300.0548
300.1832
300.0935
300.1181
300.118
300.0935
300.0549
300.2224
300.067
300.1831
300.0671
300.1833
300.0548
300.0917
300.0882
300.0917
300.0882
300.0515
300.1814
300.0498
300.1738
300.0515
300.1817
300.0498
300.0917
300.0882
300.0917
300.0882
300.0516
300.1817
300.1739
300.0499
300.1818
300.0516
300.0499
300.0548
300.0668
300.2173
300.183
300.0667
300.0548
300.1829
300.0937
300.1187
300.118
300.0942
300.0549
300.2174
300.0671
300.184
300.0668
300.1829
300.0552
300.0919
300.0882
300.0917
300.0884
300.0516
300.1816
300.0499
300.174
300.0515
300.1815
300.0499
300.092
300.089
300.0925
300.0885
300.0517
300.1827
300.174
300.0503
300.1816
300.052
300.0501
300.061
300.0682
300.2307
300.1843
300.0734
300.0562
300.1953
300.1132
300.2922
300.1397
300.2496
300.0835
300.2369
300.2762
300.357
300.0972
300.2008
300.2352
300.1009
300.0895
300.0929
300.0973
300.0577
300.183
300.0513
300.1868
300.053
300.194
300.056
300.1112
300.2416
300.2482
300.1074
300.0796
300.3525
300.1922
300.2278
300.1995
300.2339
300.0776
300.2264
300.1042
300.2328
300.1008
300.2137
300.3325
300.0735
300.1833
300.2196
300.3223
300.0717
300.2255
300.0966
300.0997
300.2197
300.2129
300.1825
300.3128
300.0685
300.3213
300.0701
300.2075
300.0485
300.054
300.1748
300.1785
300.0498
300.0525
300.1686
300.0848
300.0875
300.0879
300.0843
300.0476
300.1744
300.0487
300.1667
300.049
300.1682
300.0474
300.0842
300.0881
300.091
300.0814
300.0472
300.1778
300.05
300.1626
300.0512
300.1678
300.0461
300.0838
300.0805
300.0833
300.081
300.0464
300.1659
300.1622
300.045
300.1674
300.0461
300.0452
300.0472
300.0486
300.1728
300.1665
300.0485
300.0472
300.1663
300.0841
300.0873
300.0873
300.084
300.0471
300.1728
300.0485
300.1663
300.0485
300.1663
300.0471
300.0831
300.0804
300.0832
300.0802
300.0459
300.1657
300.0448
300.1601
300.046
300.1655
300.0448
300.0831
300.0801
300.083
300.0802
300.0459
300.1654
300.1601
300.0447
300.1655
300.0458
300.0447
300.047
300.0484
300.1722
300.1662
300.0484
300.0471
300.1658
300.0839
300.0871
300.0871
300.0839
300.047
300.1722
300.0484
300.166
300.0484
300.1658
300.047
300.0829
300.0801
300.083
300.0801
300.0458
300.1654
300.0446
300.1597
300.0458
300.165
300.0446
300.0829
300.08
300.0829
300.0801
300.0458
300.1652
300.1597
300.0446
300.165
300.0458
300.0446
300.047
300.0484
300.1728
300.1661
300.0484
300.047
300.1663
300.0839
300.0871
300.0871
300.0839
300.047
300.1728
300.0484
300.1663
300.0484
300.1663
300.047
300.0829
300.08
300.0829
300.08
300.0458
300.1652
300.0446
300.16
300.0458
300.1655
300.0446
300.0829
300.08
300.0829
300.08
300.0458
300.1655
300.1601
300.0446
300.1655
300.0458
300.0446
300.0471
300.0484
300.1728
300.1663
300.0484
300.047
300.1664
300.0839
300.0871
300.0871
300.084
300.0471
300.1729
300.0484
300.1665
300.0484
300.1665
300.0471
300.0829
300.08
300.0829
300.0801
300.0458
300.1655
300.0446
300.1602
300.0458
300.1656
300.0446
300.0829
300.0802
300.083
300.0801
300.0458
300.1657
300.1603
300.0447
300.1656
300.0459
300.0447
300.0472
300.0485
300.173
300.1665
300.0485
300.0471
300.1667
300.0843
300.088
300.0874
300.085
300.0474
300.1731
300.049
300.1683
300.0487
300.1668
300.0477
300.0832
300.0802
300.083
300.0805
300.046
300.1657
300.0448
300.1607
300.0459
300.1659
300.0449
300.0833
300.0814
300.084
300.0806
300.0462
300.1675
300.1608
300.0454
300.166
300.0465
300.045
300.0533
300.05
300.1859
300.1687
300.0546
300.0487
300.1801
300.1031
300.2407
300.1063
300.2348
300.0742
300.1913
300.227
300.3308
300.0758
300.1854
300.2216
300.0924
300.0819
300.0846
300.0897
300.0521
300.1679
300.0465
300.1745
300.0475
300.1794
300.0509
300.1021
300.2286
300.2341
300.0992
300.0726
300.3275
300.1797
300.2158
300.1846
300.2208
300.0712
300.2137
300.0956
300.219
300.0929
300.2018
300.3102
300.067
300.1718
300.2068
300.3021
300.0656
300.213
300.0895
300.092
300.2077
300.2011
300.1712
300.2943
300.0629
300.3002
300.0642
300.1962
300.044
300.0488
300.1619
300.1674
300.045
300.0478
300.1576
300.0778
300.0796
300.0802
300.0772
300.0432
300.1615
300.0439
300.1555
300.0442
300.1572
300.0429
300.0775
300.0816
300.0839
300.0754
300.0431
300.1668
300.0458
300.1532
300.0468
300.157
300.0422
300.077
300.0743
300.0764
300.0749
300.0423
300.1549
300.1528
300.0411
300.1566
300.042
300.0414
300.0427
300.0438
300.1594
300.1554
300.0437
300.0428
300.1549
300.0769
300.0793
300.0794
300.0768
300.0426
300.1594
300.0436
300.1547
300.0436
300.1549
300.0426
300.0761
300.0742
300.0763
300.074
300.0417
300.1548
300.0409
300.1504
300.0418
300.1543
300.0409
300.0761
300.0739
300.076
300.0739
300.0417
300.1541
300.1503
300.0407
300.1543
300.0416
300.0408
300.0425
300.0436
300.159
300.1547
300.0435
300.0425
300.1544
300.0767
300.0792
300.0792
300.0767
300.0425
300.159
300.0435
300.1545
300.0435
300.1544
300.0425
300.076
300.0738
300.076
300.0738
300.0416
300.1541
300.0407
300.1499
300.0416
300.1538
300.0407
300.076
300.0738
300.0759
300.0738
300.0416
300.1539
300.1499
300.0407
300.1538
300.0416
300.0407
300.0425
300.0435
300.1593
300.1546
300.0435
300.0425
300.1547
300.0767
300.0792
300.0792
300.0767
300.0425
300.1593
300.0435
300.1548
300.0435
300.1547
300.0425
300.0759
300.0738
300.0759
300.0738
300.0416
300.154
300.0407
300.1501
300.0416
300.1541
300.0407
300.0759
300.0738
300.076
300.0738
300.0416
300.1542
300.1501
300.0407
300.1541
300.0416
300.0407
300.0426
300.0435
300.1595
300.1548
300.0436
300.0425
300.1549
300.0768
300.0793
300.0792
300.0769
300.0426
300.1595
300.0436
300.1551
300.0436
300.155
300.0426
300.076
300.0738
300.076
300.0739
300.0416
300.1542
300.0407
300.1504
300.0416
300.1543
300.0407
300.076
300.074
300.0762
300.0739
300.0417
300.1545
300.1504
300.0408
300.1544
300.0417
300.0408
300.0428
300.0437
300.16
300.1552
300.0438
300.0427
300.1557
300.0774
300.0806
300.0798
300.0783
300.043
300.1602
300.0444
300.1577
300.044
300.1558
300.0434
300.0765
300.0741
300.0762
300.0745
300.0419
300.1546
300.0409
300.1513
300.0418
300.1551
300.0411
300.0767
300.0756
300.0776
300.0747
300.0422
300.1572
300.1515
300.0417
300.1552
300.0426
300.0413
300.0489
300.0455
300.1739
300.1582
300.0499
300.0445
300.1697
300.0957
300.2279
300.0983
300.2229
300.0685
300.179
300.2151
300.3124
300.0698
300.1747
300.2105
300.0858
300.0762
300.0782
300.0837
300.0479
300.1577
300.0428
300.1655
300.0436
300.1691
300.047
300.095
300.2177
300.2223
300.0927
300.0673
300.3121
300.1704
300.2056
300.1742
300.2099
300.0662
300.2024
300.0888
300.207
300.0865
300.1912
300.2934
300.0617
300.1629
300.1956
300.2907
300.0606
300.2017
300.0838
300.0858
300.1973
300.1906
300.1624
300.2803
300.0584
300.2917
300.0595
300.1864
300.0406
300.0449
300.1527
300.1587
300.0414
300.044
300.1494
300.0724
300.0737
300.0743
300.0718
300.0398
300.1523
300.0403
300.1472
300.0406
300.149
300.0395
300.0723
300.0764
300.0783
300.0706
300.0398
300.1582
300.0424
300.1459
300.0432
300.1489
300.0391
300.0719
300.0695
300.0712
300.0702
300.0391
300.1468
300.1455
300.0381
300.1485
300.0388
300.0383
300.0392
300.0401
300.1499
300.1471
300.04
300.0393
300.1464
300.0714
300.0732
300.0733
300.0713
300.0392
300.1498
300.0399
300.1461
300.04
300.1464
300.0391
300.0709
300.0694
300.0711
300.0692
300.0385
300.1466
300.0379
300.1429
300.0386
300.146
300.0378
300.0708
300.069
300.0707
300.0691
300.0384
300.1457
300.1428
300.0377
300.1459
300.0384
300.0377
300.0391
300.0399
300.1494
300.1461
300.0399
300.0391
300.1459
300.0712
300.0731
300.0731
300.0712
300.0391
300.1494
300.0398
300.146
300.0398
300.1459
300.0391
300.0706
300.069
300.0707
300.0689
300.0383
300.1456
300.0376
300.1423
300.0383
300.1455
300.0376
300.0706
300.0689
300.0706
300.0689
300.0383
300.1455
300.1423
300.0376
300.1454
300.0383
300.0376
300.0391
300.0398
300.1496
300.146
300.0398
300.0391
300.1461
300.0712
300.0731
300.0731
300.0712
300.0391
300.1496
300.0399
300.1462
300.0399
300.1461
300.0391
300.0706
300.0689
300.0706
300.0689
300.0383
300.1455
300.0376
300.1425
300.0383
300.1456
300.0376
300.0706
300.069
300.0707
300.0689
300.0383
300.1457
300.1425
300.0376
300.1456
300.0383
300.0376
300.0391
300.0399
300.1499
300.1462
300.0399
300.0391
300.1464
300.0714
300.0734
300.0733
300.0716
300.0392
300.1499
300.04
300.1467
300.04
300.1464
300.0393
300.0708
300.069
300.0707
300.0691
300.0384
300.1458
300.0377
300.1428
300.0384
300.1459
300.0377
300.0708
300.0694
300.071
300.0691
300.0385
300.1463
300.1428
300.0378
300.1459
300.0385
300.0378
300.0395
300.0401
300.1508
300.1468
300.0403
300.0394
300.1476
300.0723
300.075
300.0741
300.0733
300.0398
300.151
300.041
300.1499
300.0405
300.1477
300.0402
300.0715
300.0695
300.0711
300.0699
300.0388
300.1463
300.038
300.1442
300.0387
300.1471
300.0382
300.0717
300.0712
300.0728
300.0701
300.0391
300.1495
300.1444
300.0389
300.1473
300.0395
300.0384
300.0454
300.042
300.165
300.1505
300.0462
300.0413
300.1618
300.0899
300.2171
300.092
300.2129
300.064
300.1699
300.205
300.2985
300.0651
300.1666
300.2011
300.0806
300.0718
300.0734
300.0788
300.0446
300.1501
300.0399
300.1583
300.0406
300.1613
300.0439
300.0893
300.2084
300.2123
300.0874
300.063
300.2982
300.163
300.1968
300.1661
300.2005
300.062
300.1926
300.0832
300.1967
300.0813
300.1819
300.2801
300.0573
300.1554
300.1858
300.2735
300.0563
300.192
300.0789
300.0807
300.1881
300.1813
300.155
300.2692
300.0544
300.2734
300.0554
300.1776
300.0378
300.0417
300.1455
300.1515
300.0384
300.0409
300.1427
300.0682
300.069
300.0697
300.0675
300.037
300.1451
300.0374
300.1405
300.0377
300.1423
300.0367
300.0681
300.072
300.0736
300.0667
300.0371
300.1511
300.0395
300.1397
300.0402
300.1423
300.0365
300.0677
300.0656
300.067
300.0663
300.0364
300.1401
300.1393
300.0355
300.1419
300.0361
300.0358
300.0365
300.0372
300.1425
300.1404
300.0371
300.0366
300.1396
300.067
300.0685
300.0686
300.0669
300.0364
300.1424
300.037
300.1393
300.037
300.1396
300.0363
300.0666
300.0654
300.0669
300.0652
300.0358
300.14
300.0353
300.1366
300.0359
300.1393
300.0352
300.0666
300.065
300.0664
300.0651
300.0358
300.1389
300.1366
300.0351
300.1392
300.0357
300.0352
300.0363
300.037
300.1419
300.1392
300.0369
300.0363
300.1391
300.0669
300.0684
300.0684
300.0668
300.0363
300.1419
300.0369
300.1391
300.0369
300.139
300.0363
300.0664
300.065
300.0664
300.0649
300.0357
300.1388
300.0351
300.136
300.0357
300.1387
300.0351
300.0664
300.0649
300.0664
300.0649
300.0356
300.1387
300.136
300.035
300.1387
300.0356
300.035
300.0363
300.0369
300.142
300.1391
300.0369
300.0363
300.1391
300.0669
300.0685
300.0684
300.0669
300.0363
300.142
300.037
300.1393
300.0369
300.1392
300.0363
300.0664
300.0649
300.0664
300.065
300.0357
300.1387
300.035
300.1361
300.0356
300.1388
300.035
300.0664
300.065
300.0665
300.065
300.0357
300.1389
300.1361
300.0351
300.1388
300.0357
300.0351
300.0364
300.037
300.1424
300.1393
300.037
300.0363
300.1395
300.0671
300.0689
300.0686
300.0674
300.0365
300.1424
300.0372
300.14
300.0371
300.1396
300.0366
300.0666
300.0651
300.0665
300.0652
300.0358
300.1389
300.0351
300.1365
300.0357
300.1392
300.0352
300.0667
300.0655
300.0669
300.0653
300.0358
300.1396
300.1366
300.0354
300.1392
300.0359
300.0353
300.0369
300.0373
300.1438
300.1401
300.0375
300.0367
300.1411
300.0682
300.0707
300.0696
300.0693
300.0372
300.144
300.0382
300.1436
300.0378
300.1413
300.0376
300.0675
300.0656
300.067
300.0662
300.0363
300.1397
300.0355
300.1382
300.0361
300.1407
300.0357
300.0677
300.0675
300.0688
300.0664
300.0366
300.1433
300.1384
300.0364
300.1409
300.037
300.036
300.0425
300.0393
300.1579
300.1442
300.0432
300.0386
300.1551
300.085
300.2079
300.0868
300.2042
300.0602
300.1625
300.1963
300.2904
300.0611
300.1597
300.1929
300.0762
300.0681
300.0694
300.0747
300.0419
300.1439
300.0374
300.1521
300.038
300.1547
300.0412
300.0845
300.2001
300.2037
300.0828
300.0593
300.291
300.1566
300.1891
300.1593
300.1924
300.0584
300.1837
300.0784
300.1876
300.0767
300.1735
300.2675
300.0535
300.1489
300.1771
300.2632
300.0526
300.1832
300.0745
300.0761
300.1796
300.173
300.1485
300.2581
300.0509
300.2626
300.0518
300.1696
300.0353
300.0389
300.1394
300.1452
300.0359
300.0382
300.137
300.0645
300.0651
300.0658
300.0638
300.0346
300.139
300.0349
300.1348
300.0352
300.1365
300.0343
300.0644
300.0681
300.0696
300.0632
300.0347
300.1448
300.037
300.1343
300.0376
300.1366
300.0342
300.064
300.0621
300.0634
300.0628
300.0341
300.1344
300.1339
300.0333
300.1362
300.0338
300.0335
300.0341
300.0348
300.1363
300.1346
300.0346
300.0342
300.1338
300.0633
300.0646
300.0647
300.0632
300.034
300.1362
300.0345
300.1334
300.0346
300.1338
300.034
300.063
300.062
300.0632
300.0617
300.0335
300.1343
300.0331
300.1312
300.0336
300.1335
300.033
300.0629
300.0615
300.0628
300.0617
300.0335
300.1331
300.1312
300.0329
300.1334
300.0334
300.0329
300.0339
300.0345
300.1357
300.1334
300.0345
300.0339
300.1332
300.0631
300.0645
300.0645
300.0631
300.0339
300.1357
300.0345
300.1332
300.0345
300.1332
300.0339
300.0627
300.0615
300.0628
300.0615
300.0333
300.133
300.0328
300.1306
300.0334
300.1329
300.0328
300.0627
300.0615
300.0627
300.0615
300.0333
300.1329
300.1306
300.0328
300.1329
300.0333
300.0328
300.0339
300.0345
300.1357
300.1332
300.0345
300.0339
300.1333
300.0632
300.0646
300.0645
300.0633
300.0339
300.1358
300.0345
300.1334
300.0345
300.1333
300.034
300.0628
300.0615
300.0627
300.0615
300.0334
300.1329
300.0328
300.1306
300.0333
300.1329
300.0328
300.0628
300.0616
300.0628
300.0615
300.0334
300.1331
300.1306
300.0329
300.1329
300.0334
300.0328
300.034
300.0346
300.1362
300.1335
300.0346
300.034
300.1337
300.0635
300.0651
300.0648
300.0638
300.0341
300.1362
300.0348
300.1343
300.0347
300.1338
300.0342
300.063
300.0616
300.0629
300.0618
300.0335
300.1331
300.0329
300.1311
300.0334
300.1334
300.033
300.0631
300.0622
300.0634
300.0619
300.0336
300.134
300.1312
300.0332
300.1335
300.0337
300.0331
300.0346
300.0349
300.1379
300.1345
300.0351
300.0344
300.1355
300.0647
300.067
300.066
300.0658
300.0349
300.1381
300.0359
300.1382
300.0354
300.1358
300.0353
300.0641
300.0623
300.0635
300.0629
300.0341
300.1341
300.0333
300.133
300.0339
300.1352
300.0335
300.0643
300.0642
300.0654
300.0631
300.0344
300.1379
300.1333
300.0343
300.1354
300.0348
300.0338
300.04
300.0369
300.1517
300.1388
300.0406
300.0363
300.1492
300.0807
300.1996
300.0823
300.1963
300.0567
300.1562
300.1886
300.2745
300.0576
300.1536
300.1855
300.0724
300.0647
300.0659
300.071
300.0394
300.1385
300.0352
300.1466
300.0358
300.1489
300.0388
300.0802
300.1927
300.1959
300.0787
300.0559
300.2741
300.1508
300.1821
300.1532
300.1851
300.0552
300.1757
300.074
300.1791
300.0725
300.1659
300.2572
300.0501
300.143
300.1691
300.2529
300.0493
300.1753
300.0706
300.072
300.172
300.1654
300.1427
300.2492
300.0477
300.2527
300.0485
300.1623
300.0331
300.0364
300.134
300.1396
300.0336
300.0358
300.1318
300.0612
300.0617
300.0624
300.0605
300.0325
300.1336
300.0327
300.1297
300.033
300.1314
300.0322
300.0611
300.0646
300.0659
300.06
300.0326
300.1392
300.0347
300.1294
300.0352
300.1315
300.0321
300.0608
300.059
300.0601
300.0596
300.032
300.1294
300.1291
300.0312
300.1311
300.0317
300.0315
300.032
300.0326
300.1309
300.1295
300.0325
300.0321
300.1288
300.0601
300.0611
300.0613
300.0599
300.0319
300.1308
300.0323
300.1283
300.0324
300.1287
300.0318
300.0597
300.0589
300.06
300.0586
300.0315
300.1292
300.0311
300.1264
300.0316
300.1285
300.031
300.0597
300.0584
300.0596
300.0585
300.0314
300.128
300.1263
300.0309
300.1284
300.0313
300.0309
300.0318
300.0323
300.1303
300.1283
300.0323
300.0318
300.1281
300.0599
300.0611
300.0611
300.0599
300.0318
300.1302
300.0323
300.128
300.0323
300.1281
300.0318
300.0595
300.0584
300.0595
300.0583
300.0313
300.128
300.0308
300.1257
300.0313
300.1278
300.0308
300.0595
300.0583
300.0595
300.0583
300.0313
300.1277
300.1257
300.0308
300.1278
300.0313
300.0308
300.0318
300.0323
300.1303
300.128
300.0323
300.0318
300.1281
300.0599
300.0612
300.0611
300.06
300.0318
300.1303
300.0324
300.1283
300.0323
300.1281
300.0319
300.0595
300.0583
300.0595
300.0584
300.0313
300.1277
300.0308
300.1258
300.0313
300.1278
300.0308
300.0596
300.0585
300.0597
300.0584
300.0313
300.128
300.1258
300.0309
300.1278
300.0314
300.0309
300.032
300.0324
300.1308
300.1284
300.0325
300.0319
300.1287
300.0603
300.0618
300.0615
300.0606
300.0321
300.1309
300.0327
300.1294
300.0326
300.1287
300.0322
300.0599
300.0586
300.0597
300.0588
300.0315
300.1281
300.0309
300.1264
300.0314
300.1284
300.031
300.0599
300.0592
300.0603
300.0588
300.0316
300.1291
300.1264
300.0312
300.1284
300.0317
300.0311
300.0326
300.0328
300.1327
300.1295
300.033
300.0323
300.1306
300.0616
300.0638
300.0627
300.0626
300.0329
300.133
300.0338
300.1334
300.0333
300.1309
300.0333
300.061
300.0593
300.0604
300.0599
300.0321
300.1292
300.0314
300.1284
300.0319
300.1304
300.0316
300.0612
300.0612
300.0623
300.0601
300.0324
300.1331
300.1286
300.0323
300.1306
300.0328
300.0319
300.0377
300.0347
300.1462
300.1339
300.0382
300.0342
300.144
300.0768
300.1923
300.0782
300.1892
300.0537
300.1505
300.1816
300.2678
300.0544
300.1482
300.1787
300.0689
300.0617
300.0628
300.0677
300.0371
300.1337
300.0333
300.1416
300.0337
300.1437
300.0366
300.0763
300.1858
300.1888
300.075
300.0529
300.2668
300.1457
300.1755
300.1479
300.1783
300.0522
300.1684
300.0701
300.1716
300.0687
300.1589
300.2485
300.047
300.1377
300.1619
300.2441
300.0462
300.1679
300.0669
300.0683
300.165
300.1585
300.1374
300.2383
300.0448
300.2436
300.0455
300.1556
300.0311
300.0341
300.1292
300.1345
300.0316
300.0336
300.1272
300.0581
300.0586
300.0592
300.0575
300.0305
300.1288
300.0308
300.1251
300.031
300.1268
300.0303
300.0581
300.0613
300.0625
300.057
300.0306
300.1342
300.0325
300.125
300.033
300.1269
300.0302
300.0578
300.0561
300.0572
300.0567
300.0301
300.1249
300.1246
300.0294
300.1265
300.0298
300.0296
300.03
300.0306
300.1261
300.125
300.0305
300.0301
300.1242
300.0571
300.058
300.0582
300.0569
300.03
300.126
300.0304
300.1237
300.0304
300.1241
300.0299
300.0568
300.056
300.057
300.0557
300.0296
300.1247
300.0293
300.1221
300.0297
300.1239
300.0292
300.0567
300.0556
300.0566
300.0557
300.0295
300.1234
300.122
300.029
300.1238
300.0295
300.0291
300.0299
300.0304
300.1254
300.1237
300.0303
300.0299
300.1235
300.0569
300.058
300.058
300.0569
300.0299
300.1254
300.0303
300.1235
300.0303
300.1235
300.0299
300.0565
300.0555
300.0566
300.0555
300.0294
300.1234
300.029
300.1214
300.0295
300.1232
300.029
300.0565
300.0555
300.0565
300.0555
300.0294
300.1232
300.1214
300.029
300.1232
300.0294
300.029
300.0299
300.0303
300.1255
300.1235
300.0304
300.0299
300.1235
300.057
300.0582
300.0581
300.0571
300.0299
300.1255
300.0304
300.1238
300.0304
300.1236
300.03
300.0566
300.0555
300.0566
300.0556
300.0295
300.1232
300.029
300.1214
300.0294
300.1233
300.029
300.0566
300.0557
300.0568
300.0556
300.0295
300.1235
300.1215
300.0291
300.1233
300.0295
300.0291
300.0301
300.0305
300.1261
300.1238
300.0306
300.03
300.1242
300.0574
300.0588
300.0585
300.0577
300.0302
300.1261
300.0308
300.1249
300.0306
300.1242
300.0303
300.057
300.0558
300.0568
300.056
300.0297
300.1235
300.0292
300.1221
300.0296
300.1239
300.0292
300.0571
300.0564
300.0574
300.0561
300.0298
300.1246
300.1222
300.0295
300.124
300.0299
300.0293
300.0307
300.0309
300.1281
300.125
300.0312
300.0305
300.1263
300.0587
300.0608
300.0598
300.0597
300.031
300.1284
300.0319
300.129
300.0314
300.1265
300.0314
300.0581
300.0565
300.0576
300.0571
300.0303
300.1248
300.0296
300.1242
300.0301
300.126
300.0298
300.0584
300.0584
300.0594
300.0574
300.0306
300.1287
300.1245
300.0306
300.1262
300.031
300.0301
300.0356
300.0328
300.1414
300.1296
300.0361
300.0323
300.1393
300.0732
300.1854
300.0745
300.1826
300.0508
300.1454
300.1751
300.2641
300.0515
300.1434
300.1725
300.0657
300.0589
300.0599