/*--------------------------------*- C++ -*----------------------------------*\
| =========                 |                                                 |
| \\      /  F ield         | OpenFOAM: The Open Source CFD Toolbox           |
|  \\    /   O peration     | Version:  2506                                  |
|   \\  /    A nd           | Website:  www.openfoam.com                      |
|    \\/     M anipulation  |                                                 |
\*---------------------------------------------------------------------------*/
FoamFile
{
    version     2.0;
    format      ascii;
    arch        "LSB;label=32;scalar=64";
    class       volScalarField;
    location    "1000/air";
    object      alphat;
}
// * * * * * * * * * * * * * * * * * * * * * * * * * * * * * * * * * * * * * //

dimensions      [1 -1 -1 0 0 0 0];

internalField   nonuniform List<scalar> 
33752
(
0.008517064
0.00853221
0.008574273
0.008630803
0.008690266
0.00874647
0.008796128
0.008838643
0.008874437
0.008904204
0.008928855
0.008949409
0.008966916
0.008982405
0.00899683
0.009011021
0.009025652
0.009041214
0.009058007
0.009076159
0.009095643
0.009116332
0.009138044
0.009160604
0.009183921
0.009208075
0.00923344
0.009260976
0.009292653
0.009326596
0.008517279
0.008516211
0.008546364
0.008594238
0.008647083
0.008698131
0.008744066
0.008783514
0.008816845
0.008844647
0.008867749
0.008887113
0.008903745
0.008918638
0.008932716
0.008946781
0.008961479
0.008977265
0.008994406
0.00901299
0.009032961
0.009054168
0.009076435
0.009099639
0.00912382
0.009149342
0.009177129
0.009209133
0.009249277
0.009297759
0.008542009
0.00852783
0.008542603
0.008577225
0.008619609
0.008662565
0.008702452
0.008737032
0.008766402
0.008790928
0.008811299
0.008828396
0.008843192
0.008856671
0.008869761
0.008883267
0.008897823
0.008913859
0.008931598
0.008951069
0.008972153
0.008994651
0.009018365
0.009043207
0.009069338
0.00909737
0.009128639
0.009165678
0.00921297
0.00926928
0.008583145
0.008558567
0.008558253
0.008578171
0.008608125
0.008641186
0.008673219
0.008701602
0.008725844
0.00874605
0.008762729
0.008776677
0.008788855
0.008800278
0.008811916
0.008824608
0.008839001
0.008855503
0.008874275
0.008895255
0.008918222
0.008942876
0.008968948
0.008996329
0.009025221
0.009056349
0.009091211
0.009132491
0.009184614
0.009244817
0.008628469
0.008595929
0.008582812
0.008589001
0.008606435
0.008628893
0.008652139
0.008673318
0.008691456
0.00870635
0.008718332
0.008728147
0.008736802
0.00874541
0.008755036
0.008766605
0.0087808
0.008798008
0.0088183
0.008841475
0.008867149
0.008894848
0.008924164
0.00895489
0.008987187
0.009021775
0.009060147
0.009104923
0.009160312
0.009222501
0.008670127
0.008631766
0.008608742
0.008603445
0.008609517
0.008621623
0.008635791
0.008649179
0.00866044
0.008669058
0.008675252
0.008679802
0.008683857
0.008688744
0.008695586
0.008705598
0.008719567
0.008737847
0.008760355
0.008786534
0.008815851
0.008847562
0.008881034
0.008915889
0.008952179
0.008990541
0.009032382
0.009080189
0.009137958
0.0092012
0.008705391
0.008662739
0.008632292
0.008617807
0.008614073
0.008616539
0.008621784
0.008627105
0.008630808
0.008632119
0.008631253
0.008629024
0.008626952
0.008626675
0.008629986
0.008638079
0.008651819
0.008671521
0.008696923
0.008727397
0.008761717
0.008798751
0.008837532
0.008877384
0.008918282
0.008960773
0.009006157
0.009056794
0.009116517
0.009180404
0.008734302
0.008688362
0.008652282
0.00863049
0.008618403
0.008612086
0.008608716
0.008605851
0.008601289
0.008594035
0.008584559
0.008574338
0.008565121
0.008558997
0.008557986
0.008563744
0.008577312
0.008598956
0.008628139
0.00866366
0.008703924
0.008747279
0.008792314
0.00883816
0.008884421
0.008931506
0.00898062
0.009034066
0.009095589
0.009159983
0.008758028
0.008709455
0.008668971
0.008641229
0.008621937
0.008607584
0.008596091
0.008584849
0.008571113
0.008554426
0.008535444
0.008515879
0.008498078
0.008484714
0.0084784
0.008481319
0.008494777
0.008518987
0.00855303
0.008595042
0.008642686
0.008693648
0.008746001
0.008798473
0.008850543
0.008902515
0.008955568
0.009011905
0.009075218
0.009140106
0.008778138
0.008727373
0.008683249
0.008650454
0.008624807
0.008603095
0.008583937
0.008564076
0.008540896
0.00851399
0.008484399
0.008454242
0.00842644
0.008404387
0.008391647
0.008391134
0.008404515
0.008431955
0.008472067
0.008522111
0.008578629
0.008638456
0.008699104
0.008758949
0.008817306
0.008874434
0.008931487
0.008990689
0.009055759
0.009121177
0.008795825
0.008743198
0.008695953
0.008658743
0.008627443
0.008599064
0.008572703
0.008544377
0.008511578
0.00847413
0.008433301
0.008391551
0.008352376
0.008320005
0.008304166
0.008302596
0.008316188
0.008344972
0.008387885
0.008446852
0.008513699
0.008583511
0.008653174
0.008720814
0.008785661
0.008847995
0.008909027
0.008971059
0.009037852
0.009103772
0.008811706
0.008757554
0.008707633
0.008666584
0.008630337
0.008596066
0.008563125
0.008526839
0.008484897
0.008437207
0.008385125
0.008331311
0.008283004
0.008249162
0.00822843
0.008223822
0.008237278
0.00826885
0.008316602
0.00837713
0.008451363
0.008531633
0.008610539
0.00868592
0.00875706
0.008824343
0.008889107
0.00895376
0.009022159
0.009088595
0.008826101
0.00877068
0.008718547
0.008674291
0.008633911
0.008594725
0.008556102
0.008512923
0.008462978
0.008406154
0.008343744
0.008280013
0.008229162
0.008188584
0.008162448
0.008154836
0.008168102
0.008202282
0.008254994
0.008321904
0.008398277
0.008486674
0.008574125
0.008656517
0.008733221
0.008804804
0.008872768
0.008939656
0.009009425
0.009076332
0.008838678
0.008782499
0.008728723
0.00868201
0.008638458
0.00859553
0.008552517
0.008504047
0.008447948
0.008384035
0.008313593
0.008246632
0.008189741
0.008143375
0.008112836
0.008102754
0.008115782
0.008151946
0.008208533
0.008280618
0.008362311
0.008453191
0.008547119
0.008634984
0.008715962
0.008790773
0.008861109
0.008929645
0.009000428
0.009067687
0.008849547
0.008792878
0.008738058
0.008689738
0.008644122
0.008598787
0.008553007
0.008501301
0.008441505
0.008373381
0.008298308
0.00822951
0.008168801
0.008118966
0.008085777
0.008074157
0.008086931
0.008124124
0.008182831
0.008257796
0.008342694
0.008434758
0.008532201
0.008623056
0.008706347
0.00878291
0.008854533
0.008923969
0.008995326
0.009062885
0.008858356
0.008801577
0.008746365
0.008697355
0.008650878
0.00860456
0.008557855
0.008505258
0.008444621
0.008375716
0.008299928
0.008230527
0.008169288
0.008119004
0.008085445
0.008073529
0.008086077
0.008123113
0.008181726
0.008256652
0.008341553
0.008433652
0.00853114
0.008622035
0.008705365
0.008781967
0.008853631
0.008923104
0.008994495
0.009062088
0.008864944
0.008808421
0.008753451
0.008704662
0.008658494
0.0086127
0.008566885
0.008515738
0.008457127
0.008390891
0.008318326
0.008249566
0.008191112
0.008143428
0.008111806
0.008100864
0.008113241
0.008148951
0.008205269
0.008277241
0.008358938
0.008449923
0.008543974
0.008631963
0.008713061
0.008787994
0.008858448
0.008927094
0.008997982
0.009065397
0.008869413
0.008813415
0.008759231
0.008711478
0.008666713
0.008622774
0.008579472
0.008531854
0.008477768
0.008417142
0.008351278
0.008284567
0.008231172
0.008188463
0.00816059
0.008151609
0.008163852
0.008197331
0.008249633
0.008316374
0.008392758
0.008481333
0.008568969
0.008651631
0.00872859
0.008800387
0.008868544
0.008935602
0.009005519
0.00907259
0.00887214
0.008816766
0.008763751
0.008717666
0.008675191
0.008634239
0.008594721
0.008552264
0.008504614
0.008451733
0.008394943
0.008337052
0.008285326
0.008248631
0.008225591
0.008219187
0.008231321
0.008262002
0.008309241
0.008369575
0.008443894
0.008524335
0.008603435
0.00867912
0.008750572
0.008818137
0.008883158
0.00894803
0.009016606
0.009083206
0.008873242
0.008818729
0.008767123
0.008723111
0.008683572
0.008646476
0.008611634
0.008575401
0.00853539
0.008491474
0.008444916
0.008398169
0.008354703
0.008318845
0.008300226
0.008296522
0.008308568
0.008336328
0.008378663
0.008437505
0.008504411
0.008574355
0.008644202
0.008712092
0.008777243
0.0088399
0.008901236
0.008963519
0.009030498
0.009096525
0.008873333
0.008819675
0.008769472
0.008727699
0.008691502
0.008658878
0.008629249
0.00859975
0.00856791
0.008533349
0.008497095
0.008461211
0.008428561
0.008402504
0.008386573
0.008383653
0.008395352
0.008421735
0.008461283
0.008511106
0.008567605
0.008627537
0.008688389
0.008748528
0.008807245
0.00886475
0.008922145
0.008981621
0.009046878
0.009112378
0.008872625
0.008819681
0.008770714
0.008731217
0.00869864
0.008670936
0.008646872
0.008624285
0.008600474
0.008575031
0.008548549
0.008522647
0.008499572
0.008481912
0.00847221
0.008472582
0.008484247
0.008507301
0.008540688
0.0085824
0.008629988
0.008681071
0.008733687
0.00878653
0.008839033
0.008891437
0.008944863
0.009001485
0.009064972
0.009129942
0.008870395
0.008818044
0.008770283
0.00873327
0.008704692
0.008682327
0.008664171
0.00864825
0.008632273
0.008615238
0.008597504
0.008580424
0.00856559
0.008554959
0.008550435
0.008553568
0.008565283
0.008585719
0.008614204
0.00864941
0.008689644
0.008733188
0.008778579
0.008824885
0.008871651
0.008919215
0.008968731
0.009022465
0.0090841
0.009148598
0.00886496
0.008813424
0.00876739
0.00873355
0.008709651
0.008693111
0.008681247
0.008671821
0.008662845
0.008653431
0.008643647
0.008634106
0.008626135
0.008621177
0.008620893
0.008626326
0.008638205
0.008656706
0.008681434
0.008711641
0.008746018
0.008783343
0.008822582
0.008862986
0.008904449
0.008947455
0.008993259
0.009044205
0.009104116
0.00916808
0.008853726
0.008804155
0.008761463
0.008732264
0.008714133
0.008704039
0.008698764
0.00869571
0.008693128
0.008690199
0.008686887
0.008683726
0.00868163
0.00868173
0.00868493
0.008692285
0.008704423
0.008721556
0.00874347
0.008769491
0.00879897
0.008831083
0.008865105
0.008900576
0.008937469
0.008976367
0.009018643
0.009066774
0.009124749
0.009188071
0.008837729
0.008791516
0.008754084
0.008731177
0.008719913
0.008716761
0.008718158
0.008721271
0.008724516
0.008727173
0.008729189
0.008730992
0.008733311
0.008737023
0.008742979
0.008751915
0.008764342
0.008780488
0.008800287
0.008823407
0.00884935
0.008877538
0.008907467
0.008938847
0.008971769
0.009006909
0.00904573
0.009090844
0.009146449
0.009208721
0.00882198
0.008780094
0.008749282
0.008733826
0.008730065
0.008733957
0.008741781
0.008750624
0.008759068
0.008766489
0.008772868
0.008778602
0.008784331
0.008790809
0.008798775
0.00880887
0.008821556
0.008837075
0.008855437
0.008876445
0.008899752
0.008924946
0.008951665
0.008979717
0.009009247
0.009040939
0.009076267
0.009117901
0.009170253
0.00923054
0.008811047
0.008774971
0.008752182
0.00874488
0.008748658
0.008759227
0.00877282
0.008786706
0.008799592
0.00881095
0.008820815
0.00882959
0.008837891
0.008846419
0.008855859
0.008866807
0.008879708
0.00889482
0.008912206
0.008931751
0.00895321
0.00897627
0.009000642
0.009026162
0.009052938
0.009081546
0.009113299
0.009150714
0.009198252
0.009254653
0.008808409
0.008781633
0.00876874
0.008769814
0.008780546
0.008796924
0.008815332
0.008833343
0.008849789
0.008864225
0.008876738
0.008887758
0.008897905
0.00890787
0.008918332
0.008929877
0.008942956
0.008957851
0.008974664
0.00899334
0.009013694
0.009035465
0.009058387
0.009082268
0.009107098
0.009133209
0.009161499
0.009193902
0.009234318
0.009282914
0.008817068
0.008804286
0.008801121
0.00880901
0.008824997
0.008845627
0.008867406
0.008888246
0.008907046
0.008923415
0.008937484
0.008949719
0.008960771
0.008971362
0.008982195
0.008993888
0.009006917
0.009021597
0.009038068
0.009056309
0.009076169
0.009097411
0.009119767
0.009142998
0.009166963
0.009191709
0.009217586
0.009245538
0.009277517
0.009311621
0.07880585
0.07939309
0.08026204
0.08122008
0.08214882
0.08298619
0.08371474
0.08433451
0.08485285
0.08528259
0.08563902
0.08593818
0.08619574
0.0864262
0.08664222
0.0868541
0.08706942
0.08729296
0.08752671
0.08777021
0.08802093
0.08827479
0.08852658
0.08877033
0.08899917
0.08920472
0.08937532
0.08949229
0.08952375
0.08944413
0.07908914
0.079688
0.08053755
0.08146419
0.08236304
0.08317634
0.0838832
0.08448478
0.08498685
0.08540149
0.08574385
0.08603025
0.08627682
0.08649859
0.08670866
0.0869176
0.08713308
0.0873597
0.08759912
0.08785035
0.08811027
0.08837414
0.08863614
0.08888965
0.08912709
0.08933898
0.08951172
0.08962302
0.08963438
0.08951506
0.07955349
0.08010824
0.08088251
0.08172963
0.08255854
0.08331467
0.08397218
0.08453106
0.0849949
0.08537465
0.08568536
0.08594381
0.08616696
0.08637068
0.08656877
0.08677217
0.0869885
0.0872219
0.08747318
0.0877402
0.08801852
0.08830205
0.08858374
0.0888558
0.08910961
0.08933448
0.08951519
0.08962717
0.08962915
0.08949249
0.08011059
0.08059694
0.08126557
0.08200271
0.08273321
0.08340538
0.08398987
0.08448308
0.08488698
0.08521165
0.08547236
0.08568687
0.08587344
0.08604925
0.0862291
0.08642444
0.08664278
0.08688748
0.08715791
0.08745005
0.08775733
0.08807156
0.08838372
0.08868441
0.08896368
0.08920979
0.08940655
0.08952854
0.08953361
0.08939473
0.08067633
0.08109631
0.08165741
0.08227643
0.08289516
0.08346643
0.08395923
0.08436678
0.08469033
0.0849401
0.0851324
0.08528667
0.08542313
0.08556089
0.08571622
0.08590133
0.08612356
0.08638514
0.08668341
0.08701166
0.08736025
0.08771791
0.0880729
0.08841365
0.08872864
0.08900506
0.08922618
0.08936629
0.08938301
0.08924972
0.08120666
0.08157055
0.08203478
0.08253971
0.08304311
0.0835037
0.08389039
0.08419491
0.08441922
0.08457516
0.08468109
0.08475884
0.08483144
0.08492088
0.08504549
0.08521849
0.08544709
0.08573206
0.08606806
0.08644483
0.08684865
0.08726396
0.08767538
0.0880686
0.08843018
0.08874623
0.08899952
0.08916435
0.08919827
0.08907463
0.0816906
0.08200793
0.08238696
0.08278528
0.08317408
0.08351817
0.08378751
0.08397405
0.08408253
0.08412759
0.08413038
0.08411598
0.08411078
0.08414004
0.08422583
0.08438382
0.08462165
0.08493832
0.08532469
0.08576495
0.08623923
0.08672702
0.08720875
0.08766689
0.08808579
0.08845026
0.08874269
0.08893747
0.08899233
0.08888052
0.08212924
0.08240683
0.08271022
0.08300933
0.08328602
0.08351029
0.08365388
0.08371085
0.08369041
0.08361004
0.0834928
0.08336798
0.08326797
0.08322399
0.08326245
0.08340232
0.08365211
0.08400882
0.0844585
0.08497846
0.08554151
0.08611978
0.08668779
0.08722378
0.08770987
0.08813037
0.08846761
0.08869635
0.08877464
0.08867588
0.08252371
0.08276678
0.08300259
0.08320984
0.08337841
0.08348228
0.08349519
0.08341583
0.08325717
0.08303805
0.08278617
0.08253622
0.08232684
0.08219584
0.08217555
0.08229193
0.08255597
0.08296257
0.08349117
0.0841082
0.08477652
0.0854602
0.08612745
0.08675246
0.08731506
0.08779843
0.08818508
0.08845051
0.0885537
0.08846853
0.08287399
0.08308703
0.08326279
0.08338608
0.08345257
0.0834389
0.08332138
0.08310436
0.08280269
0.08243807
0.08204172
0.08165355
0.08131758
0.08107763
0.08096924
0.08104536
0.08132398
0.08179818
0.08243716
0.0831792
0.08397304
0.08477616
0.08555268
0.08627385
0.0869178
0.08746737
0.08790569
0.08820926
0.08833805
0.08826652
0.08317932
0.08336657
0.08349004
0.08353856
0.08351174
0.08338785
0.08314644
0.08279669
0.08235499
0.08184445
0.08129885
0.08075891
0.08026156
0.07984896
0.07951213
0.0794764
0.07976276
0.08036322
0.08124248
0.08219858
0.08316072
0.08410011
0.08499248
0.08581218
0.086538
0.08715338
0.08764247
0.08798317
0.08813662
0.08807823
0.08343927
0.08360497
0.08368447
0.08366909
0.0835609
0.08333912
0.08298679
0.0825169
0.08194592
0.08129736
0.08060296
0.07988391
0.07908687
0.07838367
0.0779349
0.07784328
0.07814694
0.07883486
0.0798488
0.08107497
0.08235539
0.08346673
0.08447922
0.08539408
0.0861968
0.08687312
0.08740882
0.08778326
0.08795893
0.08791219
0.08365389
0.08380264
0.08384725
0.08378059
0.08360612
0.08330377
0.0828598
0.08228945
0.08160869
0.08083947
0.08000154
0.0790388
0.07796934
0.07708939
0.07653653
0.07640112
0.07672211
0.0774852
0.07862382
0.08002681
0.08155449
0.08291174
0.08404678
0.08504662
0.08591518
0.08664284
0.08721744
0.08761989
0.08781384
0.08777652
0.08382483
0.0839609
0.08398029
0.08387642
0.08365349
0.08329204
0.08278087
0.08213632
0.08137371
0.08051228
0.07955384
0.07833564
0.07711916
0.07612367
0.07549487
0.07532704
0.07566113
0.07648037
0.07771113
0.07923315
0.0808946
0.08249132
0.08372995
0.08479466
0.08571156
0.08647647
0.08707913
0.08750169
0.08770868
0.08767795
0.08395283
0.08408118
0.08408551
0.08395954
0.08370794
0.08331172
0.08276137
0.08207379
0.08126408
0.08034984
0.07932261
0.07796605
0.07666451
0.07560604
0.07493515
0.07474871
0.07508907
0.07593808
0.07721798
0.07880296
0.08053942
0.08226262
0.08355804
0.08465782
0.08560051
0.08638516
0.08700266
0.08743582
0.08764964
0.08762216
0.08403952
0.08416485
0.08416434
0.08403168
0.08377192
0.08336672
0.08280692
0.08210995
0.08129139
0.08036908
0.07933469
0.07797198
0.07666513
0.07560224
0.07492782
0.0747387
0.07507715
0.075925
0.07720441
0.07878941
0.0805262
0.08224976
0.08354561
0.08464582
0.08558896
0.08637404
0.08699193
0.08742541
0.08763943
0.08761201
0.0840858
0.08421257
0.08421707
0.08409275
0.08384494
0.08345624
0.08291651
0.08224369
0.08145452
0.08056896
0.07958919
0.07835279
0.07712058
0.07611201
0.07547278
0.07529702
0.07562555
0.07644144
0.07767079
0.07919286
0.08085518
0.08245289
0.08369275
0.08475875
0.08567697
0.08644317
0.08704701
0.0874705
0.0876781
0.08764741
0.08409144
0.0842239
0.08424257
0.08414057
0.08392339
0.08357452
0.08308244
0.0824648
0.08173985
0.08093074
0.08005775
0.07906516
0.07797029
0.07706918
0.07649947
0.07635135
0.07666353
0.07742138
0.07855781
0.07996077
0.08148959
0.0828482
0.08398517
0.08498699
0.08585763
0.08658742
0.08716395
0.08756798
0.08776295
0.08772583
0.08405457
0.08419679
0.08423798
0.08417077
0.08400051
0.08371168
0.08329109
0.08275479
0.08212227
0.0814186
0.08067613
0.07991594
0.07908502
0.07835379
0.07788263
0.07777423
0.07806638
0.0787475
0.07975846
0.08098425
0.08226534
0.08337867
0.08439379
0.0853115
0.08611722
0.08679653
0.08733493
0.08771159
0.08788877
0.08784251
0.08397265
0.08412789
0.08419892
0.08417723
0.08406736
0.08385477
0.08352449
0.08308945
0.08256946
0.08198942
0.08138366
0.08079275
0.08025327
0.07980741
0.07944389
0.07938818
0.0796609
0.08025322
0.08112867
0.08208321
0.08304639
0.08398828
0.08488404
0.08570762
0.08643748
0.08705679
0.08754939
0.08789294
0.08804843
0.08799104
0.0838414
0.08401282
0.08412026
0.08415317
0.08411433
0.08398963
0.08376276
0.08344219
0.08304653
0.08259931
0.08213212
0.08168447
0.08129965
0.08102071
0.08088213
0.08093605
0.08119952
0.08166451
0.08229899
0.08303995
0.08383524
0.08464149
0.08542225
0.08614826
0.08679724
0.08735163
0.08779421
0.08810129
0.08823262
0.08816246
0.08365698
0.08384765
0.0839974
0.08409255
0.08413274
0.08410332
0.08398717
0.0837873
0.08352058
0.08320742
0.08287562
0.08255917
0.08229565
0.08212174
0.0820686
0.08216106
0.08240889
0.08280573
0.08332969
0.08394594
0.0846163
0.08530394
0.08597642
0.0866073
0.0871759
0.08766495
0.0880566
0.0883261
0.08843229
0.08834878
0.08341735
0.08363029
0.08382776
0.08399148
0.0841164
0.08418598
0.08418235
0.08410393
0.08396338
0.08377947
0.08357507
0.08337828
0.08322016
0.08313052
0.08313436
0.08324927
0.08348236
0.08382925
0.08427457
0.08479437
0.08536031
0.08594359
0.08651791
0.08706086
0.0875539
0.08798087
0.08832377
0.08855712
0.0886389
0.08854204
0.08312319
0.08336183
0.08361214
0.08384963
0.08406286
0.08423206
0.08433814
0.08437691
0.08435585
0.08429019
0.08420034
0.08411002
0.084044
0.08402587
0.08407606
0.0842087
0.08442989
0.08473713
0.08511982
0.08556084
0.08603911
0.08653305
0.08702218
0.08748822
0.08791491
0.08828658
0.08858527
0.08878514
0.08884374
0.08873403
0.0827775
0.08304628
0.08335491
0.08367037
0.0839735
0.08424024
0.08444996
0.08459708
0.08468506
0.08472545
0.0847353
0.08473474
0.08474494
0.08478609
0.0848748
0.08502259
0.08523503
0.08551131
0.08584457
0.0862231
0.08663195
0.08705446
0.0874743
0.08787633
0.08824648
0.08857038
0.08883046
0.08900079
0.08903875
0.08891736
0.08239255
0.08269538
0.08306626
0.08346154
0.08385329
0.08421261
0.08451701
0.08476019
0.08494314
0.08507467
0.08516917
0.08524405
0.08531753
0.08540685
0.08552648
0.08568685
0.08589363
0.08614739
0.08644389
0.08677496
0.08712963
0.08749548
0.08785977
0.08821011
0.08853432
0.08881914
0.0890475
0.08919346
0.08921445
0.08908354
0.08199474
0.08233131
0.08276289
0.08323447
0.08370881
0.08415169
0.08453847
0.08486271
0.08512393
0.08532947
0.08549204
0.08562712
0.08575089
0.08587861
0.08602326
0.08619455
0.08639824
0.08663599
0.08690558
0.08720147
0.08751573
0.08783897
0.08816115
0.08847204
0.08876105
0.08901597
0.08922031
0.0893484
0.08935792
0.08922151
0.08161958
0.08198192
0.08246334
0.08299946
0.08354342
0.08405514
0.084508
0.08489538
0.08521609
0.08547708
0.08569025
0.08586989
0.08603084
0.0861871
0.08635065
0.08653068
0.08673308
0.08696031
0.0872115
0.08748301
0.08776898
0.08806213
0.08835436
0.08863708
0.08890099
0.08913498
0.08932349
0.08944173
0.08944824
0.08931409
0.08130094
0.08166873
0.08217793
0.08275732
0.08334976
0.08390845
0.0844066
0.0848359
0.08519541
0.08549226
0.08573806
0.08594648
0.08613157
0.08630649
0.0864826
0.08666873
0.08687082
0.08709179
0.08733164
0.08758783
0.08785584
0.08812971
0.08840259
0.08866703
0.08891482
0.08913602
0.08931669
0.0894343
0.08945018
0.08933334
0.08107107
0.08141432
0.08192461
0.08252026
0.08313344
0.08371215
0.08423049
0.08467811
0.08505461
0.08536738
0.08562797
0.08584975
0.08604629
0.08623028
0.08641265
0.08660201
0.08680422
0.08702236
0.08725678
0.08750547
0.08776448
0.0880285
0.08829132
0.08854613
0.08878543
0.08900038
0.08917896
0.08930225
0.08933817
0.08926092
0.1604485
0.1623141
0.1652066
0.1683859
0.1714174
0.1741037
0.1763962
0.1783065
0.1798734
0.1811479
0.1821849
0.183039
0.1837621
0.1844006
0.1849945
0.1855759
0.1861681
0.1867857
0.1874347
0.1881133
0.1888136
0.1895228
0.1902247
0.1909011
0.1915319
0.192095
0.1925643
0.1929085
0.1930944
0.1931207
0.1612617
0.1630582
0.1658196
0.1688568
0.171766
0.1743543
0.1765673
0.1784118
0.1799219
0.1811458
0.1821375
0.1829521
0.1836421
0.1842552
0.1848324
0.1854063
0.1860005
0.1866289
0.1872964
0.1879999
0.1887294
0.1894702
0.1902043
0.1909115
0.1915699
0.192155
0.1926375
0.1929813
0.1931481
0.1931409
0.162852
0.1644151
0.1668574
0.1695929
0.1722533
0.1746442
0.1766956
0.1784038
0.1797948
0.1809124
0.1818092
0.1825409
0.1831621
0.1837227
0.1842655
0.1848244
0.1854226
0.1860731
0.1867783
0.1875318
0.1883197
0.1891233
0.1899206
0.1906879
0.1914001
0.1920293
0.1925425
0.1928994
0.1930594
0.1930333
0.1647669
0.1660552
0.1681064
0.1704573
0.1727866
0.1749038
0.1767236
0.1782301
0.1794407
0.1803948
0.1811446
0.1817478
0.1822624
0.1827418
0.183232
0.1837681
0.1843737
0.1850594
0.1858239
0.1866554
0.1875339
0.1884342
0.1893281
0.1901869
0.1909809
0.1916789
0.1922446
0.1926354
0.19281
0.1927846
0.1666614
0.1677089
0.1693904
0.1713481
0.1733139
0.1751104
0.176645
0.1778928
0.1788651
0.1795993
0.1801491
0.1805763
0.1809444
0.1813124
0.1817306
0.1822367
0.1828542
0.1835907
0.1844396
0.1853813
0.1863868
0.1874216
0.1884492
0.1894337
0.1903403
0.1911337
0.1917753
0.1922211
0.1924297
0.1924198
0.1684029
0.1692559
0.1706165
0.1722053
0.173803
0.1752524
0.1764614
0.1774013
0.1780817
0.1785411
0.1788376
0.1790399
0.1792197
0.1794444
0.1797705
0.1802395
0.1808747
0.1816806
0.1826426
0.183731
0.1849043
0.1861156
0.1873173
0.1884645
0.1895159
0.1904322
0.1911729
0.1916929
0.1919512
0.1919668
0.1699831
0.1706759
0.1717575
0.1730043
0.1742387
0.1753249
0.176177
0.1767671
0.1771069
0.1772396
0.1772305
0.1771585
0.1771068
0.1771539
0.1773658
0.1777896
0.1784498
0.1793462
0.1804545
0.1817306
0.1831167
0.1845497
0.1859679
0.1873157
0.1885443
0.1896104
0.1904714
0.1910823
0.1914024
0.1914505
0.1714256
0.1719798
0.1728114
0.1737378
0.1746159
0.1753293
0.1758014
0.176008
0.175966
0.1757253
0.1753609
0.174965
0.1746358
0.174468
0.1745405
0.1749095
0.1756019
0.1766124
0.1779039
0.1794133
0.1810612
0.1827633
0.1844412
0.1860265
0.1874628
0.1887026
0.1897024
0.1904176
0.1908087
0.190894
0.1727387
0.1731702
0.1737749
0.1744016
0.1749342
0.1752737
0.175353
0.1751538
0.1746995
0.1740475
0.1732843
0.1725188
0.1718697
0.1714502
0.1713558
0.1716571
0.1723875
0.1735366
0.1750502
0.1768388
0.1787954
0.1808117
0.1827885
0.1846436
0.1863128
0.1877456
0.1888982
0.1897274
0.1901953
0.1903208
0.1739159
0.1742392
0.1746405
0.1749914
0.1751972
0.1751729
0.1748609
0.1742496
0.1733683
0.172282
0.1710911
0.169922
0.1689123
0.1681963
0.1678907
0.1680968
0.1688677
0.1701886
0.1719763
0.174098
0.1764103
0.1787771
0.1810807
0.1832272
0.1851452
0.1867817
0.188094
0.1890415
0.1895888
0.1897553
0.1749473
0.1751776
0.1754012
0.175506
0.1754133
0.1750496
0.1743653
0.1733554
0.1720538
0.1705335
0.1689055
0.1673081
0.1658899
0.164805
0.1641961
0.1642339
0.1650413
0.1666007
0.1687566
0.171293
0.1740165
0.1767641
0.1794091
0.1818523
0.1840201
0.1858594
0.1873295
0.1883929
0.1890172
0.1892236
0.1758273
0.1759804
0.1760547
0.1759494
0.175597
0.174933
0.1739146
0.1725422
0.1708532
0.1689254
0.1668738
0.1648315
0.1629309
0.1613537
0.1604551
0.1603895
0.1612369
0.1629735
0.1654712
0.1685277
0.1717388
0.1748924
0.1778759
0.1806025
0.183004
0.185031
0.1866459
0.1878152
0.1885096
0.1887518
0.1765566
0.176649
0.1766047
0.1763304
0.1757666
0.1748552
0.1735594
0.1718832
0.1698663
0.1675871
0.165153
0.162665
0.1602479
0.1583403
0.1572175
0.1570584
0.1579419
0.159838
0.1626062
0.1660086
0.1697276
0.173293
0.1765882
0.1795621
0.1821627
0.1843474
0.1860834
0.1873407
0.188093
0.1883648
0.1771414
0.1771896
0.177059
0.176661
0.1759413
0.1748468
0.1733454
0.1714438
0.1691826
0.1666376
0.163899
0.1609987
0.1582722
0.1561208
0.1548355
0.1546063
0.1555157
0.1575288
0.1604925
0.1641494
0.1681723
0.1721053
0.1756482
0.1788077
0.1815541
0.1838533
0.1856765
0.186997
0.1877908
0.1880836
0.1775894
0.1776102
0.1774263
0.1769519
0.1761365
0.174931
0.1733064
0.1712718
0.1688684
0.1661703
0.1632568
0.160128
0.157228
0.1549423
0.1535667
0.153297
0.1542178
0.1562916
0.1593575
0.1631471
0.1673171
0.1714592
0.1751387
0.1783981
0.181222
0.1835817
0.185451
0.1868048
0.1876205
0.1879243
0.1779078
0.1779175
0.1777129
0.17721
0.1763609
0.1751194
0.1734593
0.171391
0.1689571
0.1662324
0.1632962
0.1601484
0.157233
0.1549349
0.1535497
0.153273
0.1541886
0.156259
0.1593229
0.1631116
0.1672815
0.1714238
0.175104
0.1783644
0.1811893
0.1835501
0.1854204
0.186775
0.1875913
0.1878953
0.1780998
0.1781141
0.1779201
0.177435
0.1766129
0.1754098
0.1738009
0.1717983
0.1694458
0.1668212
0.1640148
0.1610579
0.1582853
0.1560972
0.1547835
0.1545332
0.1554274
0.1574306
0.1603884
0.1640428
0.1680653
0.1719993
0.1755443
0.1787066
0.1814562
0.1837585
0.1855847
0.1869077
0.1877033
0.1879968
0.178163
0.1781964
0.1780425
0.1776186
0.1768802
0.1757849
0.1743083
0.1724632
0.1702947
0.1678835
0.1653375
0.1627567
0.1602641
0.1582964
0.1571274
0.1569339
0.157793
0.1596731
0.1624322
0.1658306
0.1695491
0.1731164
0.1764153
0.179394
0.182
0.1841902
0.1859312
0.1871927
0.187948
0.1882211
0.1780878
0.1781539
0.178067
0.177744
0.1771401
0.1762136
0.1749399
0.1733309
0.1714309
0.1693206
0.1671149
0.1649453
0.1629419
0.1612832
0.1603219
0.16021
0.1610249
0.1627406
0.1652264
0.1682779
0.1714886
0.1746455
0.1776347
0.1803685
0.182778
0.1848128
0.186435
0.1876103
0.1883089
0.1885533
0.1778574
0.1779688
0.177974
0.1777873
0.1773619
0.176655
0.1756407
0.174328
0.1727586
0.1710079
0.1691867
0.1674306
0.1658846
0.1646994
0.1640137
0.1639951
0.1647634
0.1662978
0.1684398
0.1709706
0.1736948
0.1764477
0.1791009
0.1815542
0.1837326
0.1855825
0.1870621
0.1881334
0.1887635
0.1889729
0.1774495
0.1776188
0.1777397
0.1777212
0.1775112
0.1770636
0.1763496
0.1753731
0.1741715
0.172812
0.1713931
0.1700375
0.1688786
0.1680459
0.1676519
0.1677935
0.1685202
0.1698133
0.1715862
0.1737032
0.176018
0.1783926
0.1807075
0.1828671
0.1847988
0.1864486
0.1877728
0.1887302
0.1892846
0.1894551
0.1768404
0.1770804
0.1773405
0.1775196
0.1775557
0.1773965
0.1770081
0.1763883
0.1755683
0.1746062
0.1735859
0.1726111
0.1717953
0.1712462
0.1710542
0.1712851
0.1719679
0.173088
0.1745872
0.1763727
0.1783346
0.1803617
0.1823531
0.1842248
0.1859109
0.1873598
0.1885266
0.1893675
0.189844
0.1899742
0.1760113
0.1763361
0.1767592
0.1771633
0.177471
0.1776197
0.1775686
0.1773093
0.1768651
0.1762855
0.1756413
0.1750186
0.1745098
0.1742029
0.1741716
0.1744664
0.1751096
0.1760912
0.1773699
0.1788787
0.180535
0.1822517
0.1839479
0.1855532
0.1870095
0.1882681
0.1892845
0.1900133
0.1904144
0.1905052
0.1749552
0.17538
0.1759906
0.1766457
0.1772457
0.1777134
0.1779997
0.1780907
0.1780025
0.1777762
0.1774716
0.1771611
0.1769209
0.176823
0.1769274
0.1772755
0.1778865
0.1787553
0.1798533
0.1811319
0.1825301
0.1839814
0.1854216
0.1867928
0.1880446
0.1891321
0.1900119
0.1906381
0.1909694
0.1910237
0.1736831
0.1742245
0.1750473
0.1759769
0.1768841
0.1776737
0.1782874
0.1787074
0.1789445
0.1790335
0.1790259
0.1789832
0.1789699
0.1790466
0.1792639
0.1796572
0.1802446
0.1810252
0.1819799
0.1830743
0.1842634
0.1854968
0.186724
0.1878979
0.1889754
0.1899157
0.1906772
0.1912141
0.1914846
0.1915069
0.1722361
0.1729102
0.1739673
0.1751885
0.1764091
0.1775128
0.1784335
0.1791511
0.1796742
0.1800342
0.1802771
0.1804573
0.180631
0.1808507
0.1811605
0.1815924
0.182164
0.1828781
0.1837228
0.1846741
0.1856989
0.1867593
0.1878158
0.18883
0.1897652
0.1905848
0.1912491
0.1917131
0.1919349
0.1919322
0.1707051
0.1715216
0.172823
0.1743375
0.1758608
0.1772556
0.17845
0.1794237
0.180186
0.1807675
0.181212
0.1815695
0.1818908
0.1822233
0.1826067
0.1830706
0.1836328
0.1842988
0.1850623
0.1859066
0.1868077
0.1877366
0.1886623
0.1895533
0.1903782
0.1911041
0.1916939
0.192104
0.1922925
0.1922747
0.1692486
0.1701985
0.1717256
0.173505
0.1752935
0.1769345
0.1783533
0.1795305
0.1804779
0.1812277
0.1818231
0.1823121
0.1827426
0.1831583
0.1835965
0.1840853
0.1846426
0.1852759
0.1859827
0.1867516
0.1875647
0.1883994
0.1892306
0.1900322
0.1907768
0.1914354
0.1919737
0.1923507
0.192525
0.1925068
0.1680793
0.1691223
0.1708145
0.1727896
0.1747721
0.1765898
0.1781664
0.1794835
0.1805557
0.1814172
0.1821119
0.182687
0.1831888
0.1836592
0.1841336
0.1846393
0.1851944
0.1858075
0.1864784
0.1871993
0.1879557
0.1887293
0.1894988
0.1902415
0.1909335
0.1915489