/*--------------------------------*- C++ -*----------------------------------*\
| =========                 |                                                 |
| \\      /  F ield         | OpenFOAM: The Open Source CFD Toolbox           |
|  \\    /   O peration     | Version:  2506                                  |
|   \\  /    A nd           | Website:  www.openfoam.com                      |
|    \\/     M anipulation  |                                                 |
\*---------------------------------------------------------------------------*/
FoamFile
{
    version     2.0;
    format      ascii;
    arch        "LSB;label=32;scalar=64";
    class       surfaceScalarField;
    location    "1000/air";
    object      phi;
}
// * * * * * * * * * * * * * * * * * * * * * * * * * * * * * * * * * * * * * //

dimensions      [1 0 -1 0 0 0 0];

oriented        oriented;

internalField   nonuniform List<scalar> 
98844
(
-0.002288833
-0.003004452
-0.002640551
-0.001504587
-0.003810157
-0.002437244
-0.0009687986
-0.004452777
-0.002330138
-0.0005294928
-0.004908845
-0.002321834
-0.0001132426
-0.005222956
-0.002368113
0.0003066294
-0.005441205
-0.002436955
0.0007352614
-0.005593377
-0.002507719
0.001167098
-0.005697873
-0.002570164
0.001594288
-0.005766985
-0.002620035
0.002008961
-0.005810303
-0.002655815
0.002404412
-0.005836003
-0.002677984
0.002775706
-0.005851618
-0.002688229
0.003119904
-0.005864374
-0.002689
0.00343612
-0.005880846
-0.0026831
0.003725382
-0.005906538
-0.002673405
0.003990388
-0.005945556
-0.002662737
0.004235149
-0.006000001
-0.002653641
0.004464613
-0.006069664
-0.002648316
0.004684315
-0.00615202
-0.002648657
0.004900109
-0.006242044
-0.002656249
0.0051181
-0.006332213
-0.002672475
0.005344819
-0.00641266
-0.002698782
0.005587824
-0.006470703
-0.00273688
0.005856927
-0.006490103
-0.002789162
0.006166709
-0.00644975
-0.002859437
0.006541684
-0.006320771
-0.002953999
0.00702799
-0.006062102
-0.003083451
0.007720069
-0.005616576
-0.003267719
0.008805783
-0.004917989
-0.003542045
-0.003967482
-0.003882264
-0.003141757
-0.002267032
-0.002416174
-0.002078554
-0.002785765
-0.002087603
-0.001366446
-0.003251025
-0.001913866
-0.0008128272
-0.003596214
-0.001866252
-0.0003194241
-0.003832465
-0.001883895
0.0001558653
-0.0039857
-0.001930792
0.0006263699
-0.004078958
-0.001984921
0.001091117
-0.004128401
-0.002034216
0.001544254
-0.004146385
-0.002073734
0.001978485
-0.004142718
-0.002101812
0.002387214
-0.004126034
-0.002118693
0.002765583
-0.004104225
-0.002125759
0.003111016
-0.004084706
-0.002125096
0.003423331
-0.004074057
-0.0021191
0.003704668
-0.004077634
-0.002110238
0.003959168
-0.004099147
-0.002100905
0.004192521
-0.004140096
-0.002093254
0.004411466
-0.004199488
-0.002089118
0.004623358
-0.004273841
-0.002090068
0.004835877
-0.004357136
-0.002097424
0.005057025
-0.004440966
-0.002112391
0.005295555
-0.00451485
-0.002136337
0.005561996
-0.004566071
-0.002171069
0.005870655
-0.004579386
-0.002219373
0.006243468
-0.004536525
-0.002286035
0.006717383
-0.004415132
-0.00237955
0.007358399
-0.00418807
-0.002515046
0.008289201
-0.003826065
-0.00272131
0.009742023
-0.003313358
-0.003057449
-0.002716676
-0.003548912
-0.003830381
-0.001819374
-0.002253672
-0.002597306
-0.002151372
-0.001867472
-0.001742561
-0.002465829
-0.001639944
-0.001080992
-0.002703108
-0.001554676
-0.0005084583
-0.002859507
-0.001545492
2.601201e-05
-0.002948113
-0.001572056
0.0005415519
-0.002984205
-0.00161029
0.001040739
-0.002981252
-0.001646332
0.001519531
-0.002950708
-0.001674465
0.001971428
-0.002901802
-0.001692808
0.002390141
-0.002843319
-0.001701424
0.002771165
-0.002783643
-0.001701602
0.003112536
-0.002730721
-0.001695353
0.003415124
-0.002691621
-0.001685019
0.00368259
-0.00267212
-0.001672977
0.003921023
-0.002676077
-0.001661499
0.004138318
-0.002704824
-0.001652565
0.004343532
-0.002756903
-0.001647795
0.004546299
-0.002828093
-0.001648512
0.004756464
-0.002911506
-0.001655792
0.004984112
-0.002997955
-0.001670655
0.005240211
-0.003076557
-0.00169439
0.005537965
-0.003134879
-0.001728941
0.00589528
-0.003159106
-0.001777592
0.006339213
-0.003134255
-0.001846199
0.006913801
-0.003044395
-0.001945323
0.007693291
-0.002873882
-0.002093674
0.00880532
-0.002612161
-0.002325929
0.01046964
-0.002267661
-0.002710014
-0.001907797
-0.003261275
-0.004320477
-0.001526999
-0.002164002
-0.002986116
-0.001736351
-0.001749384
-0.002031667
-0.001935282
-0.001484997
-0.001284994
-0.002079695
-0.001370086
-0.000644535
-0.002162166
-0.001337798
-5.6891e-05
-0.002189306
-0.001346449
0.0004997776
-0.002170522
-0.001370348
0.001030367
-0.00211752
-0.001394318
0.001531614
-0.002039905
-0.001412046
0.001997412
-0.001946398
-0.001421199
0.002421679
-0.001845913
-0.00142167
0.002800233
-0.001747476
-0.001414717
0.003131873
-0.001659918
-0.001402439
0.003418655
-0.001591083
-0.001387317
0.003666099
-0.001547717
-0.001371844
0.003882668
-0.001534307
-0.001358337
0.004078913
-0.001552331
-0.001348735
0.0042666
-0.00160007
-0.001344517
0.004457941
-0.001672665
-0.001346767
0.004665021
-0.001762302
-0.001356282
0.004899754
-0.001858861
-0.001373825
0.005174829
-0.001951127
-0.001400502
0.005505143
-0.002026912
-0.001438279
0.005910469
-0.002073686
-0.001490741
0.006419955
-0.0020793
-0.001564438
0.007079537
-0.00203286
-0.001671114
0.007963338
-0.001926509
-0.00183117
0.00919262
-0.001759913
-0.002081527
0.01096747
-0.001549836
-0.002492667
-0.001349757
-0.003064561
-0.004652524
-0.001315631
-0.002122736
-0.003253107
-0.001444504
-0.001691262
-0.00222829
-0.00155856
-0.001401536
-0.001416382
-0.001628304
-0.001263296
-0.0007202336
-0.001647301
-0.001211011
-8.700842e-05
-0.001619463
-0.001203065
0.00050573
-0.001550257
-0.001212999
0.001063831
-0.001450862
-0.001224755
0.001583996
-0.001328619
-0.001231449
0.002059993
-0.001192047
-0.001230344
0.002485491
-0.001050193
-0.001221214
0.002856444
-0.000912999
-0.001205427
0.003172531
-0.0007906472
-0.001185355
0.00343697
-0.0006916181
-0.001163902
0.003657511
-0.0006243645
-0.001143891
0.003845475
-0.0005944068
-0.001127862
0.004014537
-0.000603568
-0.001117823
0.004179593
-0.0006499892
-0.001115136
0.004355745
-0.000728229
-0.001120586
0.00455738
-0.0008293595
-0.001134575
0.004797743
-0.000941768
-0.001157454
0.005090692
-0.001054158
-0.001189915
0.00545175
-0.001154224
-0.001233742
0.005900888
-0.001230235
-0.001292586
0.006466939
-0.00127204
-0.001373309
0.007194481
-0.001272223
-0.001488176
0.008153591
-0.001227524
-0.001658092
0.009456219
-0.001142245
-0.001920293
0.01128568
-0.001033946
-0.002345349
-0.0009403496
-0.002921821
-0.004868371
-0.001145206
-0.00211433
-0.003421221
-0.001220871
-0.00167078
-0.002343662
-0.001274045
-0.00136207
-0.001480597
-0.001286517
-0.001204848
-0.0007388047
-0.001254294
-0.001134795
-6.663891e-05
-0.0011806
-0.001111025
0.0005576525
-0.001067712
-0.001106834
0.001139741
-0.0009274504
-0.001105496
0.001675774
-0.0007649848
-0.001099664
0.002158823
-0.0005888075
-0.001086285
0.002581719
-0.0004079519
-0.001065135
0.002940062
-0.0002334735
-0.001037866
0.003234281
-7.756642e-05
-0.001007297
0.003469423
5.030544e-05
-0.0009770645
0.003655861
0.0001397911
-0.0009505923
0.00380803
0.0001844829
-0.0009310579
0.003943283
0.0001819834
-0.0009208038
0.004080111
0.0001342582
-0.0009210737
0.004236463
4.752633e-05
-0.0009321077
0.004428974
-6.837401e-05
-0.0009534949
0.004672355
-0.000200316
-0.0009848323
0.004981063
-0.0003367848
-0.001026079
0.005370133
-0.0004646058
-0.001078687
0.005858367
-0.000572327
-0.00114614
0.006472601
-0.0006509501
-0.001235321
0.007254405
-0.0006954457
-0.001358579
0.008268538
-0.0007049177
-0.001536736
0.009618096
-0.0006852321
-0.001806569
0.01147404
-0.00065192
-0.002237968
-0.0006296037
-0.002811361
-0.005001096
-0.0009943751
-0.002127024
-0.003514392
-0.001034555
-0.001673014
-0.002394097
-0.001045165
-0.001349171
-0.001488886
-0.001015945
-0.001175778
-0.0007085486
-0.0009450655
-0.001089563
-2.941954e-06
-0.0008358528
-0.00105035
0.0006502601
-0.0006893556
-0.001031554
0.001253852
-0.000515227
-0.001015812
0.001803512
-0.0003192539
-0.0009953885
0.002290902
-0.0001092434
-0.0009669518
0.002708392
0.0001049857
-0.000930426
0.003050818
0.0003118812
-0.0008877793
0.003317532
0.0004985104
-0.0008427901
0.003516449
0.0006518018
-0.0008004134
0.003660792
0.0007607293
-0.0007652812
0.003768832
0.0008177512
-0.0007413082
0.003862258
0.0008197406
-0.000731183
0.003963794
0.0007687171
-0.000735996
0.004094912
0.0006717387
-0.0007553304
0.004274533
0.0005397755
-0.0007877711
0.004519588
0.0003862359
-0.0008316057
0.004842939
0.0002255103
-0.0008856453
0.00525786
7.090677e-05
-0.0009504328
0.005781058
-6.650846e-05
-0.001029015
0.006436891
-0.0001785594
-0.001128222
0.007263223
-0.000261529
-0.001260246
0.008319346
-0.0003153628
-0.001445676
0.009700814
-0.0003460208
-0.001720677
0.01156976
-0.0003664303
-0.002154431
-0.0003915403
-0.002721487
-0.005075582
-0.0008521919
-0.002151777
-0.003553172
-0.0008686979
-0.001688261
-0.002395883
-0.0008509316
-0.001351517
-0.001454031
-0.000793844
-0.001163948
-0.0006391725
-0.0006970967
-0.001062824
9.713705e-05
-0.0005635638
-0.001008595
0.0007758286
-0.0003938161
-0.0009742281
0.001399527
-0.000196435
-0.0009424879
0.001962
2.3295e-05
-0.0009050192
0.002452737
0.0002583198
-0.0008582999
0.002861971
0.0004980471
-0.0008022949
0.003183895
0.0007300977
-0.0007401396
0.003419096
0.0009403288
-0.0006770203
0.003576139
0.001114097
-0.0006193388
0.003671467
0.001238673
-0.0005732732
0.003727987
0.001305154
-0.0005439243
0.003772517
0.001309695
-0.0005344858
0.003832728
0.001254333
-0.0005458286
0.003934217
0.001146827
-0.0005765786
0.00409832
0.0009994295
-0.000623758
0.004341522
0.0008270067
-0.0006839728
0.004676586
0.0006450599
-0.0007546135
0.005114925
0.0004675428
-0.0008349743
0.005670402
0.0003054365
-0.0009274209
0.006363989
0.0001662488
-0.001038393
0.007228723
5.363749e-05
-0.0011799
0.008318886
-3.320606e-05
-0.001372318
0.009723993
-9.971604e-05
-0.001651409
0.0115998
-0.0001565197
-0.002085714
-0.0002117932
-0.002645374
-0.005110131
-0.0007142588
-0.002180783
-0.003554812
-0.0007152569
-0.001708754
-0.002364319
-0.000680254
-0.001361165
-0.001389531
-0.0006073837
-0.001161243
-0.0005432355
-0.0004969498
-0.001046439
0.0002213218
-0.0003507531
-0.000977365
0.0009249715
-0.0001705197
-0.0009269435
0.001568423
3.783623e-05
-0.0008777209
0.002143065
0.0002695553
-0.0008209018
0.002636766
0.0005173231
-0.000752704
0.003037168
0.0007711247
-0.0006734798
0.003336809
0.001017951
-0.0005874953
0.003536275
0.001242615
-0.0005017553
0.003645896
0.001429235
-0.0004247611
0.003685889
0.001563567
-0.0003648895
0.00368427
0.001635669
-0.0003288988
0.003673626
0.001641127
-0.0003207917
0.003687153
0.001581966
-0.0003411625
0.003754787
0.001466452
-0.0003872606
0.003900355
0.001307776
-0.0004539165
0.004140636
0.001121985
-0.0005352617
0.004486896
0.0009254131
-0.0006266134
0.004947889
0.0007324176
-0.000725868
0.00553389
0.0005540013
-0.0008345656
0.006261625
0.0003973191
-0.0009588045
0.00716037
0.0002655119
-0.001110618
0.008279745
0.000157588
-0.001310168
0.009704291
6.860761e-05
-0.001592869
0.01158468
-9.913831e-06
-0.002026988
-8.176167e-05
-0.002579309
-0.005118546
-0.000579579
-0.002208705
-0.003533245
-0.000571065
-0.001729487
-0.002312766
-0.000527759
-0.001372968
-0.001308027
-0.00044963
-0.001162488
-0.0004326027
-0.0003370052
-0.001035366
0.0003588745
-0.0001902669
-0.0009519607
0.001086678
-1.306469e-05
-0.0008852567
0.001749614
0.000192685
-0.000817784
0.002337219
0.0004216934
-0.0007397436
0.002834079
0.0006675585
-0.0006470961
0.003225322
0.0009207356
-0.0005408557
0.003501501
0.001168333
-0.0004265647
0.003662856
0.001394721
-0.0003134644
0.003721641
0.001583456
-0.0002130108
0.003701991
0.001719855
-0.0001366417
0.003637715
0.001792838
-9.289707e-05
0.003567661
0.001797922
-8.674615e-05
0.003530977
0.001737068
-0.0001184227
0.003562269
0.001618813
-0.0001836569
0.003687902
0.0014566
-0.0002744594
0.003924671
0.001267069
-0.0003818546
0.004281834
0.001066541
-0.0004982931
0.004764772
0.0008693768
-0.0006198978
0.005379812
0.0006862677
-0.0007473071
0.00613963
0.0005238759
-0.0008863754
0.007069553
0.0003848741
-0.001049285
0.00821515
0.0002682225
-0.001256231
0.009656643
0.0001695734
-0.001542458
0.01154089
8.213814e-05
-0.001976297
4.456245e-06
-0.002521612
-0.005110894
-0.0004484403
-0.002232499
-0.003499368
-0.0004350201
-0.001747564
-0.002252439
-0.0003907728
-0.00138391
-0.001220907
-0.0003165193
-0.001164638
-0.0003188144
-0.000212358
-0.001026737
0.0004982256
-7.733714e-05
-0.0009299675
0.001248795
8.409966e-05
-0.0008477329
0.00193111
0.0002720459
-0.0007616755
0.002531703
0.000482339
-0.0006612391
0.003032276
0.000709297
-0.0005423143
0.003414919
0.0009443677
-0.000406279
0.003667915
0.001175541
-0.0002602072
0.003790938
0.001388145
-0.0001164515
0.003798988
0.001565386
1.001444e-05
0.003718496
0.001692534
0.0001078064
0.00359057
0.001760727
0.0001600315
0.003459988
0.001764841
0.0001636577
0.003371881
0.001706497
0.0001186734
0.003366275
0.001593932
3.048074e-05
0.003472115
0.001439896
-8.913977e-05
0.003705459
0.001259659
-0.0002259379
0.004073357
0.001069513
-0.0003708723
0.004577485
0.0008826413
-0.0005173954
0.005220063
0.0007089319
-0.0006652435
0.006009779
0.0005543334
-0.0008201742
0.00696822
0.000421079
-0.0009946476
0.008137437
0.0003081495
-0.001209144
0.009594293
0.0002118573
-0.001499139
0.01148265
0.0001268361
-0.001933058
5.276824e-05
-0.002471985
-0.005094657
-0.000320626
-0.002250138
-0.003461731
-0.0003065282
-0.001761411
-0.002192703
-0.0002674205
-0.001392375
-0.001138314
-0.0002048137
-0.00116609
-0.0002129452
-0.0001185044
-0.001019218
0.0006268742
-6.532357e-06
-0.0009106221
0.001398778
0.0001265201
-0.0008143235
0.002099055
0.000282209
-0.0007104404
0.002712203
0.0004574123
-0.0005882242
0.003216946
0.0006475643
-0.0004430138
0.003592198
0.0008457001
-0.0002765889
0.003824313
0.001041749
-9.832864e-05
0.003911334
0.00122149
7.962629e-05
0.0038706
0.00137198
0.000234133
0.003733632
0.001480738
0.0003487563
0.003545473
0.001538647
0.000410231
0.003357777
0.001541471
0.000411059
0.003221883
0.001490542
0.0003518406
0.003181755
0.001392821
0.0002412328
0.003268086
0.00125971
9.385046e-05
0.003498555
0.001105173
-7.598918e-05
0.003876615
0.000941416
-0.0002499663
0.004400425
0.0007810081
-0.0004221802
0.005068131
0.0006319914
-0.0005907682
0.005884696
0.0004992965
-0.0007615297
0.00686841
0.0003847278
-0.0009473641
0.008058429
0.0002873622
-0.001169233
0.009528996
0.0002042415
-0.001462951
0.01142174
0.0001313652
-0.001897275
6.92407e-05
-0.002431057
-0.005075925
-0.0001971059
-0.00226226
-0.003427234
-0.0001847825
-0.001770429
-0.002141308
-0.000155682
-0.001397658
-0.001068928
-0.0001109731
-0.001166215
-0.0001247027
-5.027389e-05
-0.001012452
0.000734137
2.923444e-05
-0.0008946043
0.001523878
0.000122977
-0.0007861973
0.002239611
0.0002335579
-0.0006670832
0.002863895
0.0003587904
-0.0005256651
0.003372774
0.0004954865
-0.0003568057
0.003742654
0.0006386611
-0.0001628469
0.003956495
0.0007808581
4.70437e-05
0.004013541
0.0009116314
0.0002528045
0.003931371
0.001021337
0.0004328034
0.003745453
0.001100671
0.0005659761
0.003505497
0.001142696
0.0006358982
0.00326881
0.001144104
0.0006340449
0.003092066
0.001105819
0.0005614587
0.003022976
0.001033033
0.0004288711
0.003094145
0.0009342979
0.0002542359
0.003321607
0.0008197634
5.794251e-05
0.003708733
0.000699192
-0.0001449067
0.004249259
0.0005811114
-0.000340633
0.004938175
0.0004713253
-0.0005282522
0.005777166
0.0003736493
-0.0007133464
0.006781787
0.00028945
-0.0009093449
0.007988968
0.0002179575
-0.001137777
0.009471064
0.0001570591
-0.001434914
0.01136816
0.0001041668
-0.001869893
6.0399e-05
-0.002399975
-0.00505867
-7.561735e-05
-0.002265391
-0.003401072
-6.834854e-05
-0.001774023
-0.002104361
-5.288524e-05
-0.001399501
-0.001019857
-3.052301e-05
-0.001164948
-6.251956e-05
-8.812728e-07
-0.001006726
0.000810286
3.910942e-05
-0.0008826784
0.001613077
8.569634e-05
-0.0007655102
0.002340332
0.0001415113
-0.0006352108
0.002973087
0.000205423
-0.0004793913
0.003485289
0.0002757615
-0.0002924819
0.003851677
0.0003498342
-7.756784e-05
0.004052425
0.0004237808
0.0001563208
0.004087605
0.0004921021
0.0003843409
0.003975125
0.0005493665
0.000584441
0.003753131
0.0005906119
0.0007320436
0.003475042
0.0006120851
0.0008086892
0.003202394
0.0006119557
0.0008047867
0.002995831
0.0005906965
0.0007216765
0.002905926
0.0005511121
0.0005718177
0.002966401
0.0004978087
0.0003760071
0.003192426
0.0004362432
0.0001574898
0.003586203
0.0003717433
-6.633382e-05
0.004138801
0.0003088252
-0.0002803152
0.004843288
0.0002504283
-0.0004835934
0.005698691
0.0001985358
-0.0006802924
0.00671846
0.0001538485
-0.0008841698
0.007938078
0.0001159586
-0.00111762
0.00942879
8.376243e-05
-0.001417416
0.01133006
5.5981e-05
-0.00185308
3.33572e-05
-0.002380745
-0.005047269
4.294951e-05
-0.002263321
-0.003387195
4.429282e-05
-0.001772706
-0.002086051
4.414633e-05
-0.001398167
-0.000995947
4.201723e-05
-0.001162638
-3.271711e-05
3.844268e-05
-0.001002549
0.0008482349
3.391789e-05
-0.0008757584
0.001658221
2.98496e-05
-0.000754139
0.002391812
2.590389e-05
-0.0006179865
0.003029319
2.235772e-05
-0.0004544453
0.003543429
1.927832e-05
-0.0002576325
0.003908546
1.661854e-05
-3.190867e-05
0.00410248
1.426609e-05
0.000215572
0.004126117
1.212891e-05
0.000456327
0.003997713
1.013235e-05
0.0006676281
0.003756716
8.21999e-06
0.0008233788
0.003458544
6.366035e-06
0.0009038804
0.003167008
4.574178e-06
0.0008989075
0.002944881
2.870817e-06
0.0008099438
0.002844235
1.326763e-06
0.0006504223
0.002899319
-4.136222e-08
0.0004427588
0.003124699
-1.138435e-06
0.000211996
0.003522478
-1.984083e-06
-2.405717e-05
0.00408151
-2.62053e-06
-0.0002475906
0.004794233
-3.115465e-06
-0.0004591821
0.005658236
-3.474889e-06
-0.0006619956
0.006685941
-3.703857e-06
-0.0008701547
0.007912109
-3.822517e-06
-0.001106388
0.009407449
-3.837648e-06
-0.001407741
0.01131119
-3.719186e-06
-0.001844039
-3.50086e-06
-0.002371771
-0.005043722
0.0001600075
-0.002254813
-0.003387635
0.0001549414
-0.001766724
-0.002088471
0.0001390294
-0.001394038
-0.0009991739
0.0001124505
-0.001159723
-3.583506e-05
7.56971e-05
-0.001000588
0.0008450631
2.738823e-05
-0.0008743658
0.001655494
-2.727009e-05
-0.0007533112
0.002389711
-9.074135e-05
-0.0006175741
0.003027874
-0.0001615255
-0.0004542834
0.003542611
-0.0002378652
-0.0002575998
0.003908281
-0.0003171514
-3.190719e-05
0.004102694
-0.0003957525
0.0002155971
0.004126718
-0.0004683217
0.0004564169
0.003998613
-0.0005295628
0.0006677908
0.003757835
-0.0005746169
0.0008236039
0.003459813
-0.0005997781
0.0009041553
0.003168371
-0.0006032051
0.000899212
0.002946301
-0.0005853066
0.0008102374
0.00284574
-0.0005487707
0.0006506509
0.002900905
-0.000498091
0.0004428764
0.003126379
-0.0004386275
0.000212009
0.003524233
-0.0003757301
-2.411354e-05
0.004083308
-0.0003140284
-0.0002476704
0.00479609
-0.0002566286
-0.0004592725
0.005660178
-0.000205474
-0.0006620911
0.006687987
-0.0001612519
-0.0008702634
0.007914301
-0.0001236071
-0.00110653
0.009409868
-9.145683e-05
-0.001407949
0.01131395
-6.34396e-05
-0.001844367
-4.009828e-05
-0.002372354
-0.00504807
0.0002767132
-0.002240227
-0.003402358
0.0002656438
-0.001756401
-0.002111507
0.0002355727
-0.001387383
-0.001029476
0.0001868254
-0.001156396
-7.252374e-05
0.0001196623
-0.001000911
0.0008009329
3.275578e-05
-0.0008788206
0.001605164
-6.825719e-05
-0.0007632429
0.002334246
-0.0001857162
-0.0006341092
0.002968904
-0.0003171779
-0.0004790094
0.003482924
-0.0004594111
-0.000292479
0.003850895
-0.0006074923
-7.763748e-05
0.004053032
-0.0007541893
0.0001562915
0.004089337
-0.0008891422
0.0003845065
0.003977725
-0.001002785
0.0005848241
0.003756364
-0.001085892
0.0007326257
0.00347871
-0.001131558
0.0008094237
0.003206342
-0.001136448
0.0008056018
0.002999987
-0.001101401
0.0007224418
0.002910314
-0.001031482
0.0005723755
0.002971075
-0.0009351255
0.0003762668
0.003197393
-0.0008224282
0.0001574769
0.00359138
-0.0007032071
-6.651494e-05
0.004144063
-0.0005861536
-0.000280562
0.004848745
-0.0004773497
-0.0004839632
0.005704432
-0.0003804173
-0.0006807457
0.006724532
-0.000296663
-0.0008846907
0.007944598
-0.0002254301
-0.001118245
0.009436036
-0.0001646608
-0.001418235
0.01133859
-0.0001116803
-0.001854308
-6.719442e-05
-0.002383483
-0.005058816
0.0003938742
-0.00222064
-0.003429381
0.0003784385
-0.001742213
-0.002152789
0.0003375549
-0.00137856
-0.001084237
0.0002711704
-0.001152886
-0.0001405915
0.0001794546
-0.001003429
0.0007196301
6.141173e-05
-0.0008888729
0.001511733
-7.751242e-05
-0.0007828461
0.002230344
-0.0002388358
-0.0006654924
0.00285759
-0.0004192442
-0.0005251827
0.003369286
-0.0006141915
-0.0003569201
0.003741579
-0.0008167115
-0.0001630802
0.003957555
-0.001017037
4.686333e-05
0.004016372
-0.001200821
0.0002528541
0.00393557
-0.001355182
0.0004331892
0.003750658
-0.001467662
0.0005666735
0.003511408
-0.00152914
0.0006368235
0.003275219
-0.001535321
0.0006350541
0.00309889
-0.001487424
0.000562343
0.003030258
-0.001392281
0.0004294226
0.003101953
-0.0012612
0.0002543741
0.003329902
-0.001108134
5.775026e-05
0.00371731
-0.0009453488
-0.0001452702
0.004257798
-0.0007855349
-0.0003411098
0.004947055
-0.0006368606
-0.0005297493
0.0057866
-0.0005043953
-0.0007155682
0.006791775
-0.0003900266
-0.000911813
0.007999653
-0.0002928922
-0.001140417
0.009482904
-0.0002101115
-0.001437801
0.01138228
-0.0001377828
-0.001873272
-7.648346e-05
-0.002404846
-0.00507307
0.0005112819
-0.002198592
-0.00346484
0.0004954016
-0.001725174
-0.002207704
0.0004485923
-0.001368157
-0.001157991
0.0003709398
-0.001149469
-0.0002330796
0.0002626315
-0.001008079
0.0006087094
0.0001233845
-0.000903756
0.001383757
-4.232492e-05
-0.0008102329
0.002087723
-0.0002342639
-0.0007085372
0.002704632
-0.0004484528
-0.0005877027
0.003212978
-0.0006792854
-0.0004432555
0.003591118
-0.0009182851
-0.000276571
0.003825971
-0.001153174
-9.872222e-05
0.003915278
-0.001369492
7.935734e-05
0.003876339
-0.00155044
0.0002341892
0.003740709
-0.001681218
0.0003491787
0.003553529
-0.001752868
0.0004109002
0.003366583
-0.001760161
0.0004117786
0.003231374
-0.00170459
0.0003523676
0.003191992
-0.001594284
0.0002413792
0.003279122
-0.001441937
9.360119e-05
0.003510312
-0.001262845
-7.648253e-05
0.00388881
-0.001073365
-0.0002504857
0.004412668
-0.0008867448
-0.0004226512
0.00508075
-0.0007128372
-0.0005921072
0.00589789
-0.0005580102
-0.0007635258
0.006882181
-0.0004247191
-0.0009495994
0.0080729
-0.0003119693
-0.001171643
0.009544566
-0.0002161815
-0.001465596
0.01143941
-0.0001322634
-0.001900364
-6.061197e-05
-0.002435443
-0.005085176
0.0006315665
-0.002171516
-0.003502946
0.0006186732
-0.001705479
-0.002269725
0.0005719897
-0.001356599
-0.001243251
0.0004908809
-0.0011464
-0.0003413413
0.0003754964
-0.001014764
0.0004781689
0.0002265062
-0.0009226245
0.001232638
4.668089e-05
-0.0008434706
0.001919109
-0.0001610897
-0.0007596434
0.002523882
-0.0003925098
-0.0006607166
0.003028374
-0.0006410547
-0.000542725
0.003414458
-0.000897247
-0.0004071262
0.003670524
-0.001148054
-0.0002611907
0.003796129
-0.001377844
-0.0001172589
0.003806249
-0.001570077
9.512426e-06
0.003727371
-0.001709934
0.000107588
0.003600691
-0.001786213
0.0001600186
0.003471144
-0.001794284
0.0001636625
0.003384027
-0.00173597
0.0001184914
0.003379484
-0.001619723
2.997671e-05
0.0034864
-0.001458983
-8.987427e-05
0.003720702
-0.00127044
-0.000226711
0.004089267
-0.001070505
-0.000371427
0.004593745
-0.0008736074
-0.000517617
0.00523666
-0.0006904743
-0.0006652784
0.006026765
-0.0005279729
-0.0008201424
0.006985629
-0.0003889396
-0.000994644
0.008155322
-0.00027244
-0.001209222
0.009612758
-0.0001742755
-0.001499341
0.01150185
-8.787272e-05
-0.001933479
-1.194752e-05
-0.002472714
-0.005089804
0.0007547919
-0.002141208
-0.003536946
0.0007496145
-0.001683773
-0.002331036
0.0007104964
-0.001344395
-0.001331168
0.0006351961
-0.001144165
-0.000455383
0.0005234302
-0.001023705
0.000339255
0.0003768002
-0.0009449221
0.001071264
0.0001959745
-0.0008812968
0.001738544
-1.264384e-05
-0.0008157219
0.002330421
-0.0002452449
-0.0007391404
0.00283123
-0.0004944251
-0.0006474396
0.003226015
-0.0007502456
-0.000541789
0.003505341
-0.0009995934
-0.0004277897
0.003669398
-0.001227188
-0.0003147167
0.003730426
-0.001416993
-0.0002141157
0.003712596
-0.001554572
-0.000137537
0.003649821
-0.00162979
-9.365269e-05
0.0035811
-0.001638056
-8.751066e-05
0.003545724
-0.001581269
-0.0001193281
0.003578355
-0.001467648
-0.0001847098
0.003705291
-0.001310402
-0.0002755194
0.003943181
-0.001125642
-0.0003826901
0.004301155
-0.0009297663
-0.0004987147
0.004784597
-0.0007371843
-0.0006198648
0.005400005
-0.000558943
-0.0007469395
0.00616016
-0.0004022837
-0.0008858432
0.007090399
-0.0002704766
-0.001048702
0.008236249
-0.000162655
-0.001255634
0.009677897
-7.407309e-05
-0.001541848
0.011562
3.704507e-06
-0.001975675
7.402564e-05
-0.002520859
-0.005079964
0.0008802121
-0.002109029
-0.003558393
0.0008892939
-0.001661221
-0.002382275
0.0008672117
-0.001332808
-0.00141161
0.00080857
-0.001144018
-0.0005642444
0.0007120549
-0.001035974
0.0002039511
0.0005798155
-0.0009711991
0.0009120076
0.0004113127
-0.0009233866
0.001559912
0.0002151801
-0.000875723
0.002138543
-3.852168e-06
-0.0008200214
0.002635944
-0.0002391622
-0.0007526631
0.003039654
-0.0004799089
-0.0006740477
0.003342253
-0.0007137109
-0.0005884826
0.003544332
-0.0009262991
-0.0005029709
0.003656218
-0.001102837
-0.0004260446
0.003698161
-0.001230362
-0.0003661559
0.003698261
-0.001299753
-0.0003301397
0.00368922
-0.001306977
-0.0003220415
0.003704323
-0.001253945
-0.0003424288
0.003773511
-0.00114837
-0.0003884679
0.003920534
-0.001002524
-0.000454902
0.004162042
-0.0008313021
-0.0005358493
0.004509216
-0.0006502293
-0.0006267109
0.004970834
-0.0004732755
-0.0007255254
0.005557286
-0.0003114683
-0.0008339255
0.006285394
-0.0001723676
-0.0009580231
0.007184438
-5.974742e-05
-0.001109772
0.008303878
2.712406e-05
-0.001309217
0.009728223
9.334675e-05
-0.001591763
0.01160791
0.0001496222
-0.0020256
0.0002034989
-0.00257758
-0.005045512
0.001007947
-0.002078189
-0.003556059
0.001040644
-0.001640769
-0.00241191
0.001047778
-0.001324688
-0.001473049
0.001018459
-0.001148727
-0.0006564158
0.000949575
-0.001054135
8.383776e-05
0.0008432195
-0.001003644
0.0007669899
0.0006994392
-0.0009712693
0.001394778
0.0005279705
-0.0009405724
0.001960869
0.0003337732
-0.0009037118
0.002454842
0.000124437
-0.0008575694
0.002866878
-8.990438e-05
-0.0008020399
0.003191363
-0.0002978565
-0.0007403392
0.003428898
-0.0004862629
-0.0006775728
0.003588077
-0.0006418764
-0.0006201401
0.003685371
-0.0007534382
-0.0005742201
0.003743741
-0.0008131755
-0.000544948
0.003790062
-0.0008177707
-0.0005355286
0.003852039
-0.0007691094
-0.0005468139
0.003955228
-0.0006741744
-0.0005773851
0.00412087
-0.0005439251
-0.0006242419
0.004365385
-0.0003917884
-0.0006840276
0.004701478
-0.000232063
-0.0007542586
0.005140619
-7.810009e-05
-0.0008343153
0.005696641
5.90944e-05
-0.0009265823
0.0063907
0.0001710502
-0.001037476
0.007255731
0.0002541246
-0.0011789
0.008345936
0.0003080496
-0.001371129
0.009750649
0.0003385419
-0.001649905
0.01162494
0.000358363
-0.002083029
0.0003828689
-0.00264255
-0.00497198
0.001142886
-0.002055102
-0.003515624
0.001212223
-0.001627899
-0.002406436
0.001263758
-0.001325138
-0.001502912
0.001278133
-0.001163173
-0.0007201374
0.001249717
-0.001082898
-1.04339e-05
0.00118026
-0.00104673
0.0006465743
0.001071659
-0.001029218
0.001253774
0.000934731
-0.001013953
0.001806554
0.0007746685
-0.0009936699
0.002296498
0.00059986
-0.0009653635
0.002716178
0.0004194722
-0.0009290542
0.003060622
0.0002444538
-0.0008867539
0.003329338
8.716181e-05
-0.0008421405
0.003530104
-4.255019e-05
-0.000800092
0.003676307
-0.0001344203
-0.0007652213
0.003786207
-0.0001816605
-0.0007414151
0.003881506
-0.0001817104
-0.0007313592
0.003984914
-0.0001363852
-0.0007361317
0.004117886
-5.183125e-05
-0.0007553142
0.004299008
6.245865e-05
-0.0007875054
0.004545485
0.0001928047
-0.0008310686
0.004870021
0.0003282882
-0.0008848859
0.005285926
0.000455545
-0.0009495484
0.005809936
0.0005631491
-0.001028062
0.006466325
0.0006418882
-0.001127225
0.007292926
0.000686655
-0.001259128
0.008348922
0.000696389
-0.001444333
0.009729715
0.0006767719
-0.001719019
0.01159721
0.0006432019
-0.002152335
0.0006203708
-0.002718836
-0.004838496
0.001300179
-0.002049936
-0.003418267
0.001423785
-0.001631754
-0.002349785
0.001538015
-0.001342707
-0.001487613
0.001611505
-0.001195518
-0.0007434729
0.001635803
-0.001130206
-6.801456e-05
0.001613359
-0.001108542
0.0005596207
0.001549055
-0.001105019
0.001144655
0.001453368
-0.001103662
0.001683091
0.001333787
-0.001097549
0.002168055
0.001198822
-0.001083921
0.002592602
0.00105761
-0.001062682
0.002952454
0.0009201312
-0.001035527
0.003248132
0.0007967119
-0.001005226
0.003484845
0.0006960449
-0.0009753078
0.003672943
0.0006266397
-0.000949157
0.00382688
0.0005942862
-0.0009298823
0.003963981
0.0006009919
-0.000919803
0.004102693
0.0006450606
-0.0009201563
0.004260872
0.0007211902
-0.0009311992
0.00445519
0.000820672
-0.0009525293
0.00470008
0.0009317496
-0.0009838328
0.005010128
0.001043305
-0.001025063
0.005400346
0.001143011
-0.001077682
0.005889548
0.001219083
-0.001145133
0.006504458
0.001261232
-0.00123425
0.007286545
0.001261912
-0.001357341
0.008300452
0.001217714
-0.001535228
0.009649169
0.001132787
-0.001804729
0.01150357
0.001024553
-0.002235753
0.000930666
-0.002808591
-0.004620594
0.001504545
-0.002070931
-0.003243735
0.001708742
-0.001661778
-0.002226159
0.00190884
-0.001388368
-0.001415027
0.002057988
-0.001257588
-0.0007173026
0.002146435
-0.001208335
-8.179425e-05
0.002179299
-0.001201431
0.0005132939
0.002165408
-0.001211429
0.001073463
0.002116016
-0.001222808
0.001595298
0.002040922
-0.001228963
0.002072599
0.001948895
-0.00122737
0.002499186
0.001848953
-0.001217926
0.002871146
0.001750221
-0.001202047
0.003188294
0.001661654
-0.001182088
0.003453983
0.001591247
-0.001160889