/*--------------------------------*- C++ -*----------------------------------*\
| =========                 |                                                 |
| \\      /  F ield         | OpenFOAM: The Open Source CFD Toolbox           |
|  \\    /   O peration     | Version:  2506                                  |
|   \\  /    A nd           | Website:  www.openfoam.com                      |
|    \\/     M anipulation  |                                                 |
\*---------------------------------------------------------------------------*/
FoamFile
{
    version     2.0;
    format      ascii;
    arch        "LSB;label=32;scalar=64";
    class       volScalarField;
    location    "400/airRegion";
    object      epsilon;
}
// * * * * * * * * * * * * * * * * * * * * * * * * * * * * * * * * * * * * * //

dimensions      [0 2 -3 0 0 0 0];

internalField   nonuniform List<scalar> 
85779
(
0.008338018
0.007761741
0.007622914
0.007579244
0.007560909
0.007538907
0.007433756
0.00687452
0.003747097
0.002099853
0.001316693
0.0009194782
0.0006999803
0.0005756339
0.0005090184
0.0004794141
0.0004799983
0.0005251991
0.0006395817
0.0008748289
0.001357892
0.002438545
0.005272962
0.007231383
0.007534845
0.007614737
0.007683767
0.007871825
0.008979903
0.0234682
0.007928813
0.006987135
0.006691829
0.006577574
0.006515759
0.006436571
0.006171134
0.005014532
0.002800024
0.001748252
0.001187306
0.0008672238
0.0006770365
0.000565535
0.0005052729
0.0004785278
0.0004783027
0.0005158015
0.0006131683
0.0008118471
0.001195959
0.001935552
0.003375073
0.005961747
0.006444134
0.006604344
0.006730644
0.006981306
0.008071718
0.01945313
0.007936133
0.006912311
0.006554268
0.006400003
0.006305039
0.00616705
0.005684297
0.003380217
0.002169844
0.001484177
0.001072531
0.0008154448
0.0006530242
0.0005535806
0.000497489
0.0004704223
0.0004663116
0.0004949625
0.0005779831
0.000750279
0.001078821
0.001697723
0.002928213
0.005688017
0.006223301
0.00642411
0.006585662
0.006865831
0.007959782
0.02009785
0.00798655
0.006956004
0.00657842
0.006404921
0.006283341
0.006063403
0.005130328
0.002945553
0.001920646
0.001350056
0.001002053
0.0007790859
0.0006345155
0.0005434852
0.0004899295
0.0004614744
0.0004526649
0.0004724363
0.0005435286
0.0006995731
0.001004588
0.001591785
0.002803635
0.005645447
0.006212516
0.006442646
0.006628903
0.006922591
0.008000584
0.02063743
0.008025874
0.007002848
0.006620462
0.006437423
0.006295418
0.005996245
0.004393124
0.002704287
0.001791699
0.001275211
0.0009586205
0.0007544254
0.0006206424
0.0005348565
0.0004824475
0.0004519667
0.0004381469
0.0004492394
0.0005099786
0.0006554034
0.0009503391
0.001530737
0.002751635
0.005646367
0.006241928
0.006496689
0.00670107
0.00700023
0.008057598
0.02102162
0.008051057
0.007035301
0.006651853
0.006463104
0.006307007
0.005984631
0.004740271
0.002631342
0.001718025
0.001225935
0.000927786
0.000735635
0.0006090479
0.0005266797
0.0004745969
0.0004417761
0.0004228464
0.0004254605
0.0004766851
0.0006140683
0.0009033671
0.001481918
0.002711937
0.005646046
0.006268656
0.006545064
0.00676388
0.00706734
0.008125873
0.02129621
0.008066091
0.00705519
0.006671269
0.006477663
0.006305746
0.005910615
0.004007094
0.002430618
0.001625842
0.001176026
0.0008990882
0.0007184965
0.0005981042
0.0005184088
0.000466296
0.0004310342
0.0004069839
0.0004012805
0.0004435174
0.0005741263
0.0008589524
0.001435393
0.002670671
0.005635561
0.006283882
0.006579774
0.006810703
0.007117458
0.008176544
0.02148517
0.008074596
0.007066423
0.006681821
0.006483474
0.006292083
0.00580597
0.003375928
0.002176658
0.001519866
0.001125404
0.0008720877
0.0007026859
0.000587725
0.0005101844
0.0004578449
0.0004201133
0.0003909232
0.000377023
0.000410835
0.0005356189
0.0008162399
0.001389343
0.002626224
0.005615121
0.006287741
0.006601467
0.006843016
0.007152743
0.008211715
0.02161394
0.008079013
0.007071965
0.006686213
0.006483919
0.006281925
0.005762207
0.00324126
0.002086854
0.001467305
0.001094165
0.0008527443
0.0006899979
0.0005785882
0.0005024694
0.0004497102
0.000409484
0.0003750997
0.0003531365
0.000379313
0.0004992678
0.0007758509
0.001344524
0.002580033
0.005586974
0.006282562
0.006612742
0.006863851
0.00717657
0.008235482
0.02170043
0.008081054
0.007074174
0.00668703
0.006481237
0.00627169
0.005734001
0.00320002
0.002051231
0.001440875
0.00107526
0.000839223
0.0006800749
0.0005708253
0.0004955822
0.0004422806
0.0003995669
0.000360004
0.0003303134
0.000349909
0.0004660316
0.0007388052
0.001302417
0.00253443
0.005553312
0.006271018
0.006616399
0.00687617
0.007191947
0.008251075
0.02175715
0.008081889
0.007074775
0.006686296
0.006477315
0.006260429
0.00570543
0.003172403
0.002028254
0.001422946
0.001061597
0.0008288544
0.0006720677
0.000564306
0.0004896412
0.0004357596
0.0003907143
0.0003463561
0.0003097876
0.0003239478
0.0004369046
0.0007059836
0.001264218
0.002490734
0.005508281
0.006255145
0.006614989
0.006882537
0.007201317
0.00826091
0.02179309
0.008082279
0.007074936
0.006685398
0.006472974
0.006242975
0.005638024
0.003128963
0.002002084
0.001405728
0.001049598
0.0008201447
0.0006654523
0.0005589068
0.0004846618
0.0004302788
0.0003834103
0.0003353592
0.0002934616
0.0003030632
0.0004127845
0.0006778198
0.001230329
0.002450489
0.005463158
0.006238126
0.006610823
0.006885066
0.007206601
0.008266794
0.02181481
0.008082639
0.007075307
0.006684976
0.006465965
0.006192419
0.005257137
0.003007849
0.001958595
0.001385375
0.001038048
0.0008126946
0.0006601137
0.0005546125
0.000480697
0.0004260609
0.0003783132
0.0003284194
0.000283348
0.00028884
0.0003943895
0.0006541439
0.001199245
0.002410321
0.005418076
0.00622086
0.006605462
0.006885378
0.007209255
0.008270055
0.02182704
0.008082944
0.00707571
0.006684982
0.006464119
0.00619152
0.005395171
0.002991604
0.001936553
0.001371594
0.001029787
0.0008074112
0.000656342
0.0005515109
0.0004777964
0.0004232338
0.0003757786
0.0003263119
0.0002806644
0.0002823734
0.000382219
0.000633997
0.001165195
0.002350256
0.005335342
0.006195941
0.006598832
0.006884505
0.00721032
0.008271638
0.02183312
0.008083132
0.007075988
0.006685083
0.006462787
0.006184227
0.00536865
0.002968978
0.001923678
0.001364611
0.001025783
0.0008048327
0.0006543714
0.000549688
0.0004759413
0.0004216241
0.0003754376
0.0003285839
0.0002851603
0.0002838519
0.0003767277
0.0006168428
0.001118959
0.002213109
0.005000408
0.006135612
0.00658891
0.006882979
0.007210442
0.008272134
0.02183513
0.008083163
0.007076035
0.006685106
0.006461683
0.006167362
0.005139375
0.002935427
0.001921158
0.001365519
0.001026601
0.0008052352
0.0006543725
0.0005492962
0.0004752452
0.0004211231
0.0003765685
0.0003335005
0.0002945213
0.0002921714
0.0003791449
0.0006105891
0.001093183
0.00209543
0.004155807
0.006074757
0.006582375
0.006881681
0.007209909
0.008271787
0.02183403
0.008083084
0.007075942
0.006685253
0.006464489
0.006170337
0.004807946
0.002950804
0.001939031
0.001375356
0.001032113
0.0008084938
0.0006563492
0.0005504835
0.0004760017
0.0004220704
0.000379098
0.0003397218
0.0003057482
0.0003047559
0.000389066
0.0006183639
0.001104334
0.002141882
0.004623017
0.006098375
0.006583802
0.006880927
0.007208737
0.00827059
0.02182979
0.008082981
0.007075957
0.006685966
0.006469532
0.006221048
0.005540584
0.003067329
0.001971619
0.001390419
0.001040854
0.0008140565
0.0006601341
0.0005532921
0.0004784253
0.0004248164
0.0003833381
0.0003471344
0.0003177722
0.0003199307
0.0004051255
0.0006385877
0.001139877
0.002204496
0.004420495
0.006117584
0.006588281
0.006880185
0.007206632
0.008268276
0.02182148
0.008082782
0.0070759
0.006686888
0.006475457
0.006250513
0.005674513
0.003142867
0.002008591
0.001410039
0.001052471
0.0008216497
0.0006655818
0.0005576682
0.0004825243
0.0004294307
0.0003894483
0.0003559967
0.0003307162
0.0003371288
0.0004258307
0.0006675305
0.00119722
0.002380488
0.005324432
0.006200038
0.006597574
0.006878858
0.007203031
0.008264329
0.02180721
0.008082497
0.007075938
0.006688137
0.006480244
0.006265643
0.005717066
0.003180632
0.002034761
0.001427888
0.001064945
0.0008306841
0.0006724993
0.0005634915
0.0004881596
0.0004357574
0.0003973519
0.0003664782
0.0003450187
0.0003563983
0.0004498681
0.0006983279
0.001241055
0.002450202
0.005434482
0.006226572
0.00660165
0.00687533
0.007197011
0.008257923
0.02178397
0.008081681
0.007075365
0.006688915
0.006484253
0.006276873
0.005744526
0.003210524
0.002060911
0.001448296
0.001080138
0.0008419242
0.0006811117
0.0005707065
0.0004951197
0.0004435109
0.0004068097
0.0003785673
0.0003610149
0.0003780251
0.0004772922
0.0007320584
0.001282469
0.002499695
0.005484407
0.006242725
0.006602352
0.006868324
0.007187209
0.008247784
0.02174722
0.008079575
0.007073022
0.006687898
0.006486757
0.006287258
0.005773765
0.003257348
0.002104008
0.001480429
0.001102384
0.000857165
0.0006919882
0.0005793132
0.0005031394
0.0004523139
0.0004174602
0.0003920768
0.0003788265
0.0004022034
0.0005082674
0.0007697086
0.001326666
0.002548899
0.00553158
0.00625595
0.00659885
0.006855932
0.007171745
0.008232125
0.02169044
0.008075042
0.007067254
0.006683161
0.00648596
0.00629742
0.00581696
0.003379964
0.002198019
0.001538592
0.00113708
0.0008782311
0.0007055661
0.0005891934
0.0005118587
0.0004617013
0.0004288371
0.0004066609
0.0003983455
0.000428885
0.0005426406
0.0008112015
0.001374284
0.00259969
0.005573973
0.006264231
0.006588651
0.006835574
0.007148157
0.008208512
0.02160463
0.008066443
0.007055851
0.006672336
0.006479568
0.006308329
0.005900139
0.003781495
0.002403682
0.00163378
0.001184564
0.0009042201
0.0007211622
0.0005998304
0.0005207792
0.0004711413
0.0004404023
0.0004218496
0.0004192554
0.0004577565
0.0005799328
0.0008558026
0.001424181
0.002649489
0.005602018
0.006263942
0.006568712
0.006804181
0.007113382
0.008173677
0.02147714
0.008051315
0.007035801
0.006652646
0.006464424
0.006309379
0.005988167
0.004726416
0.002634674
0.001724945
0.001231228
0.0009309318
0.0007374066
0.0006106082
0.00052942
0.0004801313
0.0004516241
0.0004371203
0.0004411008
0.0004883362
0.0006195777
0.0009028111
0.001475346
0.002697038
0.005620008
0.006252902
0.006536248
0.006758596
0.007063973
0.008123504
0.02128984
0.008026028
0.007003156
0.006620926
0.006438045
0.006296484
0.00599985
0.004391527
0.002715628
0.001798507
0.001278613
0.0009601867
0.0007552495
0.0006218278
0.0005377019
0.0004883857
0.0004621023
0.0004520042
0.0004634091
0.0005202115
0.0006614953
0.000952871
0.001529147
0.002743301
0.005628074
0.006230687
0.006490383
0.006697213
0.006997728
0.008056251
0.02101726
0.0079866
0.006956118
0.006578551
0.006404926
0.006284029
0.006059191
0.004763798
0.002997035
0.001945842
0.001357189
0.001003636
0.0007793011
0.0006352509
0.0005462205
0.0004960065
0.0004716844
0.000466175
0.0004858041
0.0005533427
0.0007070074
0.001010513
0.001595168
0.002801651
0.005634525
0.00620567
0.006438833
0.006626478
0.006920929
0.00799981
0.02063478
0.007936105
0.006912276
0.006554174
0.0063997
0.006304747
0.006172547
0.005732314
0.00383714
0.002276591
0.00150424
0.001075767
0.0008153646
0.0006532551
0.0005560257
0.0005034671
0.0004804762
0.000479434
0.0005079692
0.0005881366
0.0007596764
0.001088347
0.001705786
0.002931661
0.005683302
0.006220244
0.006422448
0.006584479
0.006864884
0.007959302
0.02009653
0.007928762
0.006987043
0.006691658
0.006577249
0.006515267
0.006436872
0.006178099
0.005055267
0.002747286
0.001725731
0.001181567
0.0008651619
0.0006765025
0.0005675622
0.0005109635
0.0004881891
0.0004908967
0.0005286227
0.0006240836
0.0008236487
0.001209395
0.001947972
0.003381509
0.005961473
0.006443854
0.006604208
0.006730335
0.006980883
0.008071468
0.01945263
0.008337984
0.007761667
0.007622765
0.007578972
0.007560544
0.007538656
0.007431364
0.006834697
0.003358078
0.001972613
0.001289169
0.0009136097
0.000698576
0.0005771399
0.0005141909
0.0004885489
0.0004922125
0.0005380704
0.0006513408
0.000888951
0.00137545
0.002455646
0.00527686
0.007233504
0.007536237
0.007615441
0.007683965
0.007871763
0.008979846
0.02346816
0.007928815
0.006987145
0.006691857
0.006577611
0.006515597
0.006434677
0.006145583
0.004513751
0.002748526
0.001739406
0.001185281
0.0008667888
0.0006770267
0.0005656589
0.0005054833
0.0004788536
0.0004787515
0.0005162868
0.0006135854
0.0008121545
0.001196042
0.001935202
0.003374198
0.005960412
0.006443524
0.006604131
0.006730626
0.006981368
0.008071797
0.01945332
0.007246954
0.00558806
0.004912138
0.004599057
0.004410516
0.004217841
0.003874629
0.00310739
0.002167282
0.001508022
0.001088232
0.0008229513
0.0006563585
0.0005562025
0.0005018059
0.0004777106
0.0004766683
0.0005066653
0.0005874394
0.0007537753
0.00106536
0.00161255
0.002503128
0.003681648
0.004223909
0.004493071
0.004687836
0.004942618
0.005581584
0.00843096
0.00720029
0.005339623
0.004487173
0.004052897
0.003777305
0.003512702
0.003128164
0.002414483
0.001781523
0.001316511
0.0009951091
0.0007777524
0.000634413
0.0005448812
0.0004940933
0.0004693834
0.0004643664
0.0004856225
0.0005518064
0.000691839
0.0009508522
0.00139041
0.002080389
0.003004566
0.003526918
0.003828537
0.004056084
0.004325217
0.004909567
0.00744522
0.007249221
0.005353825
0.004436033
0.003940334
0.003607175
0.003277109
0.002810552
0.002135914
0.001595291
0.001206001
0.000933337
0.0007447076
0.0006172444
0.0005353291
0.0004866686
0.000460329
0.0004505517
0.000463007
0.0005166518
0.0006386611
0.0008700254
0.001267961
0.001907151
0.002805268
0.003348223
0.003685461
0.003953216
0.004268742
0.004944371
0.008050485
0.007294617
0.005405161
0.004466969
0.003942193
0.003571675
0.003190171
0.002641046
0.001997238
0.001497546
0.001142596
0.0008945254
0.0007221167
0.0006043858
0.000527179
0.00047931
0.0004507031
0.0004358392
0.0004396836
0.0004824382
0.0005922712
0.0008101602
0.001194957
0.001830067
0.002752237
0.00333501
0.003711412
0.004016095
0.004368693
0.005112712
0.008695604
0.007324553
0.005445652
0.004501576
0.00396219
0.003567865
0.00315484
0.002581141
0.00192435
0.001439112
0.001101592
0.0008676598
0.0007052732
0.0005937718
0.0005194457
0.0004715363
0.0004403314
0.0004202411
0.0004156365
0.0004485509
0.0005495438
0.0007602903
0.001141415
0.001783351
0.002736172
0.003360761
0.003773215
0.00410684
0.00448247
0.005265537
0.009171335
0.007342232
0.005470852
0.004524413
0.003975385
0.003561573
0.003116716
0.002473331
0.001843029
0.001383977
0.001065677
0.0008447122
0.0006906274
0.000583935
0.0005116177
0.0004632893
0.0004293692
0.0004039707
0.0003909846
0.0004147901
0.0005089117
0.0007150473
0.00109449
0.001742882
0.002720671
0.00338325
0.003827142
0.004183324
0.004573225
0.005377084
0.009499955
0.007351906
0.005484619
0.004536199
0.003979216
0.003547197
0.003069873
0.002341839
0.001752491
0.001329391
0.001032704
0.0008242888
0.0006774374
0.0005746442
0.000503824
0.0004549214
0.0004182485
0.0003873998
0.0003659904
0.0003814296
0.0004701696
0.0006727507
0.001050076
0.00170158
0.00269563
0.003391742
0.00386326
0.004237999
0.00463791
0.005453458
0.009722384
0.007356688
0.005491037
0.004540523
0.003977448
0.003533783
0.00304154
0.002289859
0.001706731
0.00129612
0.001009786
0.0008086036
0.0006664093
0.0005662912
0.0004964986
0.0004469549
0.0004074891
0.0003709386
0.0003410294
0.0003490867
0.0004338387
0.0006334334
0.001007682
0.001658453
0.002657985
0.003386245
0.003882629
0.004273404
0.004681337
0.005504132
0.009870703
0.007358666
0.005493175
0.004540462
0.003972424
0.003520596
0.003021299
0.002263797
0.001681702
0.001275525
0.0009939467
0.0007967023
0.0006573723
0.0005590559
0.0004899838
0.00043979
0.0003974849
0.0003550024
0.0003167714
0.0003187455
0.0004007509
0.0005977172
0.0009682313
0.001615853
0.002614157
0.003370777
0.003889262
0.004294133
0.004708999
0.005536726
0.009967407
0.007359191
0.005493135
0.004538211
0.003965628
0.003505806
0.003001851
0.002243394
0.001663125
0.001260086
0.0009817129
0.0007871841
0.0006499009
0.0005529172
0.0004843644
0.0004335142
0.0003884615
0.0003403
0.0002946549
0.000291907
0.0003718612
0.0005662604
0.0009328913
0.001577398
0.002578147
0.003350543
0.003887489
0.004304585
0.004725541
0.005556843
0.0100284
0.007359114
0.005492263
0.004535154
0.003957699
0.003487764
0.002972464
0.002218396
0.001644171
0.001245971
0.0009711969
0.0007792462
0.0006437169
0.0005477835
0.0004795634
0.0004281041
0.0003808624
0.0003283353
0.0002771051
0.0002704929
0.0003481063
0.0005394084
0.000901735
0.001542571
0.002544978
0.003328329
0.003880872
0.004308389
0.00473459
0.005568559
0.01006507
0.007358913
0.005491333
0.00453203
0.003948041
0.003458409
0.002898368
0.002175746
0.001620659
0.001231772
0.0009619092
0.0007727331
0.0006387793
0.0005436425
0.0004756256
0.0004238339
0.0003755824
0.0003210105
0.0002666566
0.0002563292
0.0003303288
0.0005172801
0.0008740575
0.001509305
0.00251109
0.003305213
0.003871877
0.004308296
0.004738872
0.005574826
0.01008557
0.007358772
0.0054907
0.004529872
0.003941754
0.003445148
0.002884599
0.00215482
0.001605089
0.001221697
0.0009553506
0.0007681863
0.0006352749
0.0005405602
0.0004726275
0.0004209279
0.0003731612
0.0003193595
0.000264787
0.0002506871
0.0003192925
0.0004998709
0.0008478711
0.001470427
0.002462428
0.003277535
0.003861318
0.004306151
0.004740317
0.005577701
0.01009561
0.007358752
0.0054905
0.004528992
0.003938835
0.003437514
0.00287035
0.002142831
0.001597285
0.0012169
0.0009522782
0.0007659781
0.0006333739
0.0005386028
0.0004705103
0.000419093
0.0003730438
0.0003227739
0.0002711952
0.0002538079
0.000315651
0.0004878183
0.0008218899
0.001414371
0.002359965
0.003236058
0.003849104
0.00430316
0.004740163
0.00557847
0.01009879
0.007358869
0.005490762
0.004529508
0.003939731
0.003436367
0.002853979
0.002140734
0.001598405
0.001218076
0.0009530444
0.0007663077
0.0006332485
0.0005379643
0.0004694023
0.000418084
0.0003740656
0.0003287548
0.0002828861
0.0002642601
0.000319821
0.0004847878
0.0008096259
0.001382573
0.002278376
0.00321258
0.003842299
0.00430081
0.004739032
0.005577662
0.01009682
0.007359128
0.005491479
0.004531393
0.00394515
0.003451479
0.002871014
0.002158963
0.001609905
0.001225112
0.0009574471
0.0007690919
0.0006349629
0.0005388956
0.0004697864
0.0004185394
0.0003763219
0.0003355386
0.0002958298
0.0002787329
0.0003308265
0.0004921734
0.0008162349
0.001393132
0.002307139
0.003218074
0.003842805
0.004299506
0.00473699
0.005575266
0.01008972
0.007359516
0.005492589
0.004534192
0.003952158
0.003470629
0.002934448
0.002189951
0.001627272
0.00123603
0.0009646458
0.0007739907
0.0006384335
0.0005415095
0.0004720096
0.0004210468
0.0003804333
0.0003432398
0.0003088088
0.0002950767
0.0003469534
0.0005090061
0.0008396687
0.001431612
0.002354852
0.003243303
0.003849319
0.004298643
0.004733505
0.005570719
0.01007586
0.007359925
0.005493928
0.004537892
0.003962089
0.003495396
0.002983448
0.002226192
0.00165008
0.0012505
0.0009742712
0.0007807565
0.0006435265
0.000545743
0.0004760636
0.00042567
0.0003866287
0.0003523391
0.0003222089
0.0003127707
0.0003669536
0.0005327351
0.0008746157
0.001495296
0.002478729
0.003285395
0.003859022
0.004296753
0.00472746
0.005562909
0.01005194
0.007360136
0.005495057
0.004541337
0.003970565
0.003513648
0.003010137
0.002250976
0.001669665
0.001265209
0.0009852139
0.0007890238
0.000650077
0.0005514416
0.0004817405
0.0004321595
0.0003947723
0.0003630814
0.0003367003
0.0003320856
0.0003901412
0.000560228
0.0009091579
0.001540136
0.002529976
0.003311635
0.003864724
0.004291317
0.004717071
0.00555003
0.01001273
0.007359652
0.005495168
0.004543698
0.003977546
0.003528366
0.003030197
0.002273029
0.001690138
0.001282137
0.0009984124
0.000799171
0.0006581412
0.0005584611
0.0004887556
0.0004401502
0.0004045639
0.0003754718
0.0003527524
0.0003534659
0.0004165846
0.0005915293
0.00094552
0.001580105
0.002565708
0.00333114
0.003865367
0.004279842
0.00469975
0.005529256
0.009950353
0.007357622
0.005492923
0.004543639
0.003982588
0.003542048
0.003052081
0.002302728
0.001719291
0.001305884
0.00101618
0.0008121655
0.0006679665
0.0005666722
0.0004967745
0.0004492081
0.0004155985
0.00038932
0.0003705571
0.0003772218
0.0004464607
0.0006269969
0.0009855795
0.001621582
0.002599281
0.00334579
0.003858618
0.004258964
0.00467194
0.005496547
0.009853516
0.007352717
0.005486271
0.004539004
0.003984117
0.00355574
0.003081714
0.00235666
0.00176892
0.001342419
0.001041087
0.0008289274
0.0006797075
0.0005758596
0.0005053872
0.0004588264
0.0004273737
0.0004042637
0.0003900366
0.0004034006
0.0004797375
0.0006665665
0.001029609
0.001665585
0.002632405
0.003352993
0.0038406
0.004224333
0.004628981
0.005446266
0.009706281
0.007342896
0.005472216
0.004526742
0.003979418
0.003568201
0.003123607
0.002464766
0.001850565
0.001393751
0.001072796
0.000848927
0.0006929293
0.0005855928
0.0005140974
0.0004684424
0.0004393127
0.0004198014
0.0004108776
0.0004317764
0.0005161537
0.0007099181
0.001077307
0.001712118
0.002668107
0.003349524
0.003807211
0.004171219
0.00456527
0.005370701
0.009485929
0.00732505
0.00544669
0.004503343
0.003965156
0.003572617
0.003160827
0.002586484
0.001931849
0.001445956
0.001106465
0.000870631
0.0007070731
0.0005954859
0.0005224645
0.0004775303
0.0004508411
0.0004353669
0.0004326114
0.0004619531
0.0005554291
0.000756965
0.001128544
0.001759375
0.002695629
0.003333459
0.003756869
0.004096824
0.00447584
0.005260255
0.009160013
0.007294937
0.005405857
0.004468171
0.003944176
0.003574827
0.003194639
0.002647192
0.002004037
0.001502625
0.001145815
0.0008963377
0.0007232605
0.0006059047
0.0005304206
0.0004857868
0.0004615254
0.0004504515
0.000454751
0.0004936016
0.0005978075
0.0008092522
0.001186919
0.001813333
0.002723128
0.003314457
0.003698961
0.004008378
0.004363533
0.005108706
0.008687225
0.007249377
0.005354206
0.004436734
0.003941581
0.003609801
0.003283685
0.00281439
0.002153012
0.001604403
0.001209837
0.0009347325
0.0007452968
0.0006184132
0.0005385311
0.0004933157
0.0004712107
0.0004647208
0.0004769283
0.0005267392
0.0006447961
0.0008720238
0.001264869
0.001897296
0.002785825
0.003333907
0.00367668
0.003947662
0.004264929
0.00494142
0.008044776
0.007200319
0.00533976
0.004487492
0.004053535
0.003778781
0.003517679
0.003144518
0.002478373
0.001806208
0.001324113
0.0009970344
0.0007779683
0.0006351238
0.0005478295
0.0005006417
0.0004800659
0.0004780405
0.000498889
0.0005617179
0.0006994212
0.0009562414
0.001392227
0.002076542
0.002992522
0.003517797
0.003822884
0.004052369
0.004322515
0.004907394
0.007441586
0.007246915
0.005588042
0.00491217
0.00459921
0.004411142
0.004220308
0.003882046
0.003123288
0.002165603
0.00150804
0.001088595
0.0008225295
0.0006565366
0.0005587761
0.000508052
0.0004879343
0.0004896803
0.0005194684
0.0005976934
0.0007634464
0.001074771
0.001619625
0.002504572
0.003674526
0.004219152
0.004490226
0.004685823
0.004940989
0.005580204
0.008428734
0.007928754
0.006987024
0.006691624
0.006577219
0.006515322
0.006436247
0.006152909
0.004516299
0.002690685
0.001719897
0.001181744
0.0008656412
0.0006767849
0.0005677689
0.000511193
0.0004884741
0.0004912251
0.0005289437
0.0006243394
0.0008238746
0.001209612
0.001948071
0.003381402
0.005961066
0.006443721
0.006604193
0.006730374
0.00698094
0.00807152
0.01945279
0.00793613
0.00691232
0.006554301
0.006400072
0.006305064
0.006166463
0.005679948
0.003349549
0.002159601
0.001480775
0.001071597
0.0008153525
0.0006531935
0.0005538534
0.0004978748
0.0004710136
0.0004671813
0.000496034
0.0005790211
0.0007510201
0.001078918
0.001696897
0.002926377
0.005685518
0.00622214
0.006423781
0.006585722
0.006866031
0.007959988
0.02009827
0.007200288
0.005339628
0.004487194
0.004052941
0.003777332
0.003512536
0.003127325
0.0024117
0.001779937
0.00131592
0.0009950086
0.0007778229
0.000634524
0.0005450045
0.000494243
0.0004696091
0.0004647446
0.000486221
0.0005525138
0.0006923544
0.0009508686
0.001389816
0.002079225
0.003002721
0.003525868
0.003828211
0.004056144
0.00432545
0.004909887
0.00744579
0.007133568
0.005018971
0.003923258
0.003316383
0.002929804
0.002616567
0.002293726
0.001884719
0.001489005
0.001163613
0.000916999
0.0007385357
0.0006148883
0.0005343638
0.0004862944
0.0004604944
0.0004515031
0.000464493
0.0005159703
0.0006281301
0.0008293846
0.001146295
0.001586517
0.002092551
0.002492609
0.002769519
0.002976028
0.003166714
0.003433197
0.004243089
0.007177714
0.005013285
0.003822763
0.003128534
0.002675763
0.002324676
0.001998932
0.001652834
0.001333952
0.00106938
0.0008632865
0.000709524
0.0005996906
0.0005255899
0.0004788836
0.0004510042
0.0004371837
0.0004416378
0.0004801864
0.0005722598
0.0007394698
0.0009986952
0.001351817
0.001760151
0.002118042
0.002388269
0.002599234
0.002791139
0.003044641
0.003799494
0.007222137
0.005060825
0.003839049
0.003105212
0.002614295
0.002233132
0.001887626
0.001551801
0.001256974
0.001016915
0.0008303317
0.0006901253
0.0005884979
0.0005181408
0.0004715914
0.0004410814
0.0004221333
0.0004181937
0.0004455276
0.0005238735
0.0006732742
0.0009098572
0.001239826
0.001636693
0.002004239
0.002296765
0.0025377
0.002769769
0.003097826
0.004089539
0.007251699
0.005100808
0.003869482
0.003117791
0.002605325
0.002204465
0.001842894
0.001503934
0.001215889
0.0009860036
0.0008090442
0.0006762646
0.0005793562
0.0005109769
0.0004638451
0.000430435
0.0004061817
0.0003938939
0.0004112259
0.0004800493
0.0006205011
0.0008498466
0.001179068
0.001589071
0.00198503
0.00231028
0.002585193
0.002855548
0.003247399
0.004461085
0.007268979
0.005125687
0.003890842
0.003129637
0.002603284
0.002188197
0.001810214
0.001468852
0.00118575
0.0009629329
0.0007925069
0.0006646944
0.0005708707
0.0005036206
0.0004556317
0.0004192503
0.0003894917
0.0003687171
0.0003769526
0.0004390069
0.0005748662
0.0008025374
0.001136709
0.001563439
0.001989981
0.002346904
0.002650506
0.002947825
0.003379715
0.004755786
0.007278198
0.005138964
0.003901917
0.00313433
0.002597519
0.002171788
0.001778114
0.00143692
0.001159757
0.0009434208
0.0007783013
0.0006542712
0.0005627201
0.0004962611
0.0004474336
0.000408066
0.0003724144
0.0003427978
0.0003428787
0.0004002752
0.0005336728
0.0007609752
0.001099527
0.001538902
0.00199294
0.00237725
0.002703676
0.00301939
0.003475375
0.004963783
0.007282542
0.005144877
0.003905901
0.003133711
0.002589662
0.002158323
0.001757815
0.001415523
0.001140945
0.0009282603
0.0007665063
0.0006450625
0.0005551903
0.000489421
0.0004399341
0.0003975039
0.0003552781
0.00031636
0.0003095709
0.000364191
0.0004962485
0.0007230647
0.001064287
0.00151318
0.001987572
0.002394699
0.002739536
0.003068561
0.003539648
0.005104153
0.007284119
0.005146571
0.003905764
0.00313004
0.002581005
0.002146734
0.001743382
0.001400366
0.001126985
0.0009163612
0.0007567398
0.000637109
0.0005485759
0.0004835234
0.0004335889
0.0003879019
0.0003382977
0.0002899991
0.0002780882
0.000331493
0.0004627021
0.0006884849
0.001030601
0.001485611
0.00197466
0.002400631
0.002760616
0.003099897
0.003580955
0.00519588
0.007284272
0.005146133
0.003903602
0.003124996
0.002572924
0.002135944
0.00173105
0.001387942
0.001115618
0.0009065674
0.000748563
0.0006303533
0.0005429387
0.0004785339
0.0004281823
0.0003791217
0.0003220534
0.0002654852
0.0002502201
0.0003031285
0.0004333738
0.0006575753
0.0009995212
0.001458701
0.001957318
0.002398507
0.002770973
0.003118421
0.003606306
0.005253611
0.007283839
0.005144874
0.00390073
0.003119407
0.002564331
0.002123921
0.001718403
0.001376302
0.001105621
0.0008982662
0.0007417406
0.0006247049
0.0005381225
0.0004740676
0.0004231634
0.0003713114
0.0003085953
0.0002461555
0.0002282808
0.000280065
0.0004085647
0.0006305206
0.0009713612
0.001433001
0.001938085
0.002391621
0.002774319
0.003128298
0.003620925
0.005288114
0.007283308
0.00514357
0.003897954
0.003113781
0.002554713
0.002107689
0.001703792
0.00136478
0.001096778
0.0008914245
0.0007362932
0.0006201557
0.0005340613
0.000470107
0.0004188625
0.0003658304
0.0003007334
0.000235275
0.0002142819
0.0002631747
0.0003885974
0.0006073743
0.0009459343
0.001408424
0.001918597
0.002382474
0.00277356
0.003132696
0.003628592
0.005307177
0.007282925
0.005142655
0.003896012
0.003109843
0.002548199
0.002098313
0.001693974
0.001356655
0.001090588
0.0008867122
0.000732508
0.0006168179
0.0005308104
0.0004668016
0.0004157491
0.0003636205
0.0002999166
0.0002345994
0.0002095966
0.0002533569
0.000373987
0.0005881256
0.000922158
0.001382878
0.001898817
0.002372563
0.002770764
0.003133875
0.00363194
0.005316269
0.007282796
0.005142323
0.003895231
0.003108132
0.002545185
0.002093534
0.001689261
0.001352909
0.001087801
0.0008845571
0.000730614
0.0006148245
0.0005284217
0.000464001
0.0004132557
0.0003637578
0.0003053027
0.0002438078
0.0002145601
0.0002513676
0.0003656567
0.0005736034
0.0008997447
0.001353372
0.001878512
0.002363111
0.002767407
0.003133327
0.003632645
0.005318935
0.007282958
0.005142637
0.003895728
0.003108912
0.002546129
0.002093874
0.00169033
0.001354068
0.001088732
0.0008851508
0.0007307789
0.0006144048
0.0005271922
0.000461846
0.0004107727
0.0003640691
0.0003129587
0.0002589761
0.0002274413
0.0002571772
0.0003650675
0.0005680628
0.0008890556
0.00133766
0.001868033
0.002357852
0.002764853
0.003131863
0.003631502
0.005316973
0.007283406
0.005143573
0.003897442
0.003112126
0.00255127
0.00210159
0.001697767
0.001359986
0.00109316
0.0008883596
0.0007329968
0.0006157406
0.0005276083
0.0004612941
0.000409781
0.0003651946
0.0003203171
0.0002743371
0.0002441464
0.0002693753
0.0003725746
0.000573276
0.0008938534
0.001342675
0.001870299
0.002358004
0.002763496
0.003129587
0.003628535
0.005310424
0.007284083
0.005145013
0.003900078
0.00311686
0.002558775
0.002113866
0.001708946
0.001369124
0.001100274
0.0008937721
0.0007370914
0.000618837
0.0005299186
0.0004630172
0.0004114935
0.0003686074
0.0003281441
0.000288511
0.0002618045
0.0002857806
0.0003872088
0.0005888232
0.0009130005
0.001363903
0.001884299
0.002363004
0.002762767
0.003125877
0.003623005
0.005297661
0.007284849
0.005146738
0.003903407
0.0031231
0.002568761
0.002129095
0.001723591
0.001381138
0.001109663
0.0009010696
0.000742858
0.0006235626
0.0005340308
0.0004669567
0.0004159052
0.0003746163
0.0003373523
0.0003023975
0.0002799899
0.0003052461
0.0004073784
0.0006119
0.0009418716
0.001397551
0.001905406
0.002370198
0.00276104
0.003119367
0.003613412
0.005275402
0.007285432
0.00514826
0.003906622
0.003129124