/*--------------------------------*- C++ -*----------------------------------*\
| =========                 |                                                 |
| \\      /  F ield         | OpenFOAM: The Open Source CFD Toolbox           |
|  \\    /   O peration     | Version:  2506                                  |
|   \\  /    A nd           | Website:  www.openfoam.com                      |
|    \\/     M anipulation  |                                                 |
\*---------------------------------------------------------------------------*/
FoamFile
{
    version     2.0;
    format      ascii;
    arch        "LSB;label=32;scalar=64";
    class       surfaceScalarField;
    location    "400/airRegion";
    object      phi;
}
// * * * * * * * * * * * * * * * * * * * * * * * * * * * * * * * * * * * * * //

dimensions      [1 0 -1 0 0 0 0];

oriented        oriented;

internalField   nonuniform List<scalar> 
257196
(
0.01085208
0.0007315292
0.0007315272
0.01057288
0.001078628
0.001078711
0.01024425
0.001122529
0.001122929
0.009995091
0.00109915
0.001100533
0.01000501
0.001143472
0.001148513
0.01056322
0.001354254
0.001339866
0.01262621
0.001515632
0.001352789
0.01993832
-0.001815924
-0.001321464
0.0328155
-0.007226705
-0.006900988
0.04399596
-0.01185262
-0.01183311
0.05063793
-0.01758004
-0.01745066
0.05288947
-0.0253849
-0.02521938
0.05073992
-0.03494149
-0.03472952
0.0440813
-0.04571146
-0.04540499
0.03310226
-0.05656137
-0.05610293
0.01857264
-0.06555169
-0.06490225
0.001976007
-0.06996965
-0.0691606
-0.01358898
-0.06659844
-0.06576379
-0.02485566
-0.05544367
-0.05473736
-0.03005835
-0.04030919
-0.03978303
-0.02858003
-0.02539641
-0.02501425
-0.0207935
-0.01383268
-0.01335966
-0.01299307
-0.004118445
-0.0039569
-0.009558416
0.001341885
0.001272421
-0.008391724
0.002760262
0.002783727
-0.00793106
0.00371682
0.003728062
-0.007569888
0.004662124
0.004666428
-0.006801147
0.005596125
0.005597446
-0.004701925
0.005896311
0.005896366
0.0004486911
0.0004480805
0.01964171
0.0006505837
0.002268961
0.01947221
0.001059679
0.003344672
0.01923373
0.001158812
0.003420843
0.01913599
0.001140534
0.003099407
0.01950842
0.001139318
0.002536856
0.02104942
0.001210857
0.001412858
0.02543439
0.0006035823
-0.001496366
0.03350914
-0.0038012
-0.005510319
0.0424695
-0.009553599
-0.008984556
0.04987784
-0.01409326
-0.01359943
0.05445677
-0.01914823
-0.02009425
0.05547113
-0.02557744
-0.0284546
0.0525112
-0.03341314
-0.03842517
0.04531609
-0.04227345
-0.04943984
0.03400765
-0.05124763
-0.06035745
0.0193068
-0.05870193
-0.06929106
0.002669854
-0.06229714
-0.07363542
-0.01306493
-0.05933316
-0.07024368
-0.02491311
-0.04981128
-0.05893459
-0.03122268
-0.03700425
-0.04338144
-0.03179655
-0.02430885
-0.02766734
-0.02797981
-0.01376137
-0.01479253
-0.02137958
-0.005244579
-0.006032786
-0.01693164
0.0001917753
0.0008932218
-0.01478141
0.002114845
0.006549426
-0.01360461
0.003346497
0.01021839
-0.012468
0.004359883
0.01341034
-0.01045299
0.0051596
0.01706636
-0.005487369
0.005139216
0.02191888
0.0002052845
0.02923507
0.02360075
0.0004971468
0.003608711
0.02358586
0.0008817907
0.0054464
0.02358238
0.001020999
0.005583463
0.02384462
0.001045267
0.004908797
0.02483621
0.001117288
0.003568203
0.02742821
0.001380723
0.0009158642
0.03399984
-0.0006211294
-0.004704315
0.04373779
-0.005274189
-0.008675079
0.05124434
-0.01000803
-0.01107832
0.0565377
-0.01437352
-0.01627543
0.05929861
-0.01906901
-0.02354991
0.05895097
-0.02464279
-0.03260832
0.0549919
-0.03123516
-0.04314327
0.04711621
-0.0386168
-0.05456011
0.03539437
-0.04608137
-0.06572149
0.02047302
-0.05227379
-0.07478959
0.003703112
-0.05518532
-0.07920546
-0.01229546
-0.05251851
-0.07581917
-0.0247307
-0.04422364
-0.06421903
-0.03201461
-0.03316194
-0.04805722
-0.03387414
-0.02215683
-0.03138504
-0.03095056
-0.01281633
-0.01736634
-0.02437915
-0.005413445
-0.007832356
-0.0194626
-0.0003078347
0.00136632
-0.01676936
0.001670733
0.01030754
-0.01494261
0.002924012
0.01667958
-0.01296587
0.003880649
0.02242132
-0.009808946
0.00451837
0.02903836
-0.00317106
0.004384061
0.03767026
0.0009875504
0.04982225
0.02547355
0.0003455132
0.004635519
0.02552177
0.0006568633
0.007165632
0.02570646
0.00080216
0.007400406
0.02635301
0.0008584897
0.006394541
0.02834654
0.0008681463
0.004195664
0.03343754
0.00065706
-0.0003506094
0.04173736
-0.0007824197
-0.006970097
0.05063865
-0.005250914
-0.01047042
0.057542
-0.009687164
-0.01366884
0.06194666
-0.01376135
-0.01944602
0.06366156
-0.0180371
-0.0273265
0.06232751
-0.02293773
-0.03697021
0.05754784
-0.02857918
-0.04798309
0.0490714
-0.03481099
-0.05972305
0.03696842
-0.04107961
-0.07106645
0.02183395
-0.04625881
-0.08023405
0.004925189
-0.04861237
-0.08471231
-0.01132044
-0.04615382
-0.08135579
-0.02420452
-0.03879927
-0.06952501
-0.03209146
-0.02913184
-0.05287
-0.03453726
-0.01956589
-0.03534604
-0.0318411
-0.01146297
-0.02013124
-0.02509486
-0.005105089
-0.009142842
-0.01978385
-0.0005071877
0.002222315
-0.01668461
0.001323572
0.01386282
-0.01437819
0.002458487
0.02267393
-0.0118835
0.003278589
0.0307584
-0.008282891
0.003752138
0.03973391
-0.001304828
0.003559522
0.05051947
0.001093008
0.0635889
0.02638973
0.00022509
0.005352169
0.02644527
0.0004525356
0.008431958
0.02675375
0.0005789954
0.008775144
0.0277276
0.0006407017
0.007488518
0.03014652
0.0007021806
0.004591593
0.03511287
0.0007998717
-0.0006988607
0.04417
-0.001784291
-0.008417363
0.05480095
-0.005823725
-0.01310213
0.06198541
-0.009294965
-0.01634407
0.06600425
-0.01276688
-0.02265918
0.06712949
-0.01655025
-0.03112557
0.06515243
-0.02082512
-0.04124844
0.05980016
-0.02566651
-0.05260684
0.05089126
-0.03095411
-0.06454331
0.03851136
-0.03624284
-0.07597149
0.02321673
-0.04058707
-0.08518132
0.006192183
-0.04247259
-0.08970108
-0.01025005
-0.04016729
-0.08638972
-0.02342225
-0.03359613
-0.07440435
-0.0316138
-0.02515194
-0.05741417
-0.03427294
-0.01691193
-0.03921456
-0.03159172
-0.0100089
-0.02288423
-0.02469512
-0.004636805
-0.0103377
-0.01914052
-0.0005973296
0.002986333
-0.01576549
0.001007428
0.01683484
-0.01317274
0.001970483
0.02772514
-0.01045977
0.0026334
0.03772125
-0.006832424
0.002971241
0.04834308
-8.688155e-06
0.002758804
0.06022348
0.0009418713
0.07293703
0.02684834
0.0001400969
0.005817643
0.02688892
0.0002955043
0.009286116
0.02726712
0.0003964239
0.009712018
0.02844616
0.0004677893
0.008201054
0.03147865
0.00049289
0.00466329
0.03831315
0.0001505366
-0.002154694
0.04846538
-0.001546461
-0.01010338
0.05812644
-0.005419923
-0.01433943
0.06500475
-0.008672496
-0.0187852
0.0688326
-0.01166571
-0.02580536
0.0696205
-0.0148925
-0.034773
0.06725514
-0.01855638
-0.04528346
0.06155032
-0.0226802
-0.05687973
0.05238365
-0.02715257
-0.06890938
0.03985339
-0.03160546
-0.08034295
0.02447855
-0.03523604
-0.08954487
0.007387709
-0.03671538
-0.09407653
-0.00918075
-0.03453433
-0.09079873
-0.02249636
-0.0286747
-0.07871283
-0.03078824
-0.02137823
-0.06153831
-0.0334785
-0.01440052
-0.04287218
-0.03076441
-0.008635114
-0.02562402
-0.02381767
-0.004158834
-0.01168255
-0.0181773
-0.0006506177
0.003339286
-0.01464422
0.0007095721
0.01897783
-0.01191433
0.001495647
0.03158609
-0.009164679
0.002014792
0.04307996
-0.005679847
0.002253862
0.05483354
0.0008532519
0.002060819
0.06728952
0.0007451344
0.07930129
0.02708781
8.333384e-05
0.006101359
0.02712197
0.0001828581
0.009817663
0.02756756
0.0002565303
0.01028552
0.02896113
0.0003256874
0.008562075
0.03215764
0.0004741946
0.004503772
0.03834483
0.0006528101
-0.002832826
0.04882861
-0.002536999
-0.01116408
0.06020579
-0.006062808
-0.01643695
0.06728443
-0.008126249
-0.02099074
0.07085171
-0.0104163
-0.02860118
0.07134584
-0.01312832
-0.03810866
0.06869943
-0.01623487
-0.04896939
0.06277596
-0.01972075
-0.06074059
0.05348118
-0.02347802
-0.07280046
0.04090658
-0.0271994
-0.08419277
0.02552429
-0.03020147
-0.09335577
0.008414108
-0.03131967
-0.09786601
-0.008215302
-0.02925588
-0.09457955
-0.0215562
-0.0240903
-0.08241931
-0.02981214
-0.0179079
-0.06519578
-0.03244813
-0.01213394
-0.04628039
-0.02971975
-0.007417114
-0.02836562
-0.02282265
-0.003724436
-0.01329103
-0.01721667
-0.0006855303
0.003155905
-0.01360847
0.0004419373
0.02024107
-0.01083071
0.001068323
0.03426133
-0.008129278
0.001469211
0.04693433
-0.004835677
0.00164293
0.05950216
0.001411399
0.001487982
0.0722986
0.0005624918
0.08366749
0.02721783
4.652666e-05
0.006262032
0.02725919
0.0001030279
0.01011705
0.02778698
0.0001422712
0.01058525
0.02944416
0.0001656342
0.008661477
0.03354828
0.0001608929
0.003979974
0.04216765
-0.0001126536
-0.005285093
0.05421054
-0.002180703
-0.01252007
0.06318499
-0.00476414
-0.0162473
0.06914318
-0.006833362
-0.02264406
0.07225347
-0.008925156
-0.03112123
0.07244014
-0.01127092
-0.04112403
0.06957593
-0.01391444
-0.05228664
0.06352269
-0.01684381
-0.06418319
0.05418921
-0.01996809
-0.07623517
0.04164399
-0.02303519
-0.08756639
0.02630167
-0.02546876
-0.09667698
0.009198142
-0.02626297
-0.1011298
-0.007443107
-0.02433491
-0.09776904
-0.02071552
-0.0198844
-0.08554332
-0.02884295
-0.01479515
-0.06838923
-0.0313862
-0.01015086
-0.04942574
-0.02867517
-0.006371221
-0.03109396
-0.02189411
-0.003343759
-0.01516058
-0.01640288
-0.0007013612
0.002468751
-0.01276408
0.0002185882
0.02072073
-0.009979608
0.0007104818
0.03591291
-0.007351678
0.00101907
0.04953506
-0.004239843
0.001151616
0.06272666
0.001752211
0.00104541
0.07576633
0.0004014278
0.0866391
0.02728643
2.433572e-05
0.006343132
0.0273309
5.320461e-05
0.01025926
0.02789801
6.858837e-05
0.01069524
0.0296646
6.013976e-05
0.008598464
0.0339463
-1.794994e-05
0.003538986
0.04268074
-0.0004176418
-0.00642214
0.05505519
-0.002028009
-0.01381702
0.06414052
-0.003879829
-0.01769915
0.06997169
-0.005646803
-0.02463546
0.07291487
-0.007466322
-0.03355392
0.07294724
-0.009460341
-0.04389377
0.06996715
-0.01167248
-0.05526079
0.06386228
-0.01409017
-0.06722498
0.05455125
-0.01663421
-0.07924412
0.04207845
-0.0190978
-0.09051354
0.02679644
-0.02100274
-0.0995707
0.0097055
-0.02151109
-0.1039295
-0.006910669
-0.01976965
-0.1004238
-0.02004062
-0.01608377
-0.08814282
-0.02797982
-0.01206001
-0.07115991
-0.03041691
-0.008448318
-0.05231041
-0.02774889
-0.00548136
-0.03376833
-0.02110919
-0.003011925
-0.01721674
-0.0157857
-0.0007138396
0.001428297
-0.01212862
4.470887e-05
0.02058934
-0.00934851
0.0004303303
0.03676583
-0.006788879
0.0006681278
0.05116838
-0.003824199
0.0007734993
0.06486174
0.001985321
0.0007092658
0.07809811
0.0002744539
0.08863599
0.02732357
1.285168e-05
0.006376442
0.02737085
2.880367e-05
0.01030531
0.02795681
3.797954e-05
0.01068996
0.02976261
3.163304e-05
0.008442918
0.0340737
-4.463023e-05
0.003107093
0.04277421
-0.0004952618
-0.007287044
0.0551986
-0.001871561
-0.01506644
0.06440663
-0.00326279
-0.01926761
0.0702468
-0.004658959
-0.02654985
0.0731266
-0.006134569
-0.03577895
0.07307602
-0.007751468
-0.04635471
0.07003098
-0.009532835
-0.05785913
0.06390997
-0.01145892
-0.06985765
0.05464459
-0.01345484
-0.08183962
0.04225605
-0.01534738
-0.09306119
0.02703626
-0.01675468
-0.1020693
0.00995917
-0.01702696
-0.1063038
-0.00659836
-0.01555655
-0.1026112
-0.01953621
-0.01269422
-0.09031429
-0.02726425
-0.009686109
-0.07358561
-0.02960409
-0.006989516
-0.05495322
-0.02699911
-0.004710066
-0.03633683
-0.02050978
-0.002713987
-0.01934159
-0.01534979
-0.0007437589
0.0001455053
-0.01167882
-7.66274e-05
0.02004503
-0.008900952
0.0002271643
0.03704916
-0.0063933
0.0004094231
0.05209951
-0.003538718
0.0004945335
0.06620714
0.002140963
0.0004615825
0.07961553
0.0001793205
0.08994566
0.02734842
8.623919e-06
0.006384301
0.02740446
2.331381e-05
0.01030082
0.02801238
4.453121e-05
0.01062704
0.02984605
8.58037e-05
0.008246352
0.0341455
0.0001077228
0.002687273
0.0428488
-0.0004994204
-0.008041473
0.05531588
-0.00182516
-0.01613357
0.06454334
-0.002809433
-0.0206215
0.07034987
-0.003801099
-0.02818345
0.07316087
-0.004899384
-0.03765535
0.07303125
-0.006120615
-0.0484132
0.06992578
-0.007469343
-0.06002294
0.06378804
-0.008916356
-0.07204771
0.05456186
-0.01038709
-0.08400297
0.04225055
-0.01173606
-0.09518974
0.02709405
-0.01268172
-0.1041469
0.01004744
-0.0127846
-0.1082505
-0.006419616
-0.01168405
-0.1044063
-0.01915596
-0.009685068
-0.09218223
-0.02669875
-0.007614916
-0.07576351
-0.02897646
-0.005708799
-0.05737863
-0.02645444
-0.004006138
-0.03874184
-0.0201602
-0.002404193
-0.02139603
-0.01505599
-0.0007045293
-0.001475759
-0.01138136
-0.0001386696
0.01928256
-0.008597732
9.534331e-05
0.03696809
-0.006123938
0.0002312085
0.05255259
-0.003346754
0.0002980954
0.06700226
0.002242663
0.0002853522
0.08056251
0.0001109846
0.09077438
0.02737378
7.910164e-06
0.006381511
0.02745325
2.658912e-05
0.01027688
0.02811817
6.781679e-05
0.01054545
0.03004249
0.0002207867
0.008035008
0.03434244
0.0006439389
0.002210858
0.04322807
-0.0007489525
-0.008579829
0.0557103
-0.00211181
-0.01683257
0.06482594
-0.002440465
-0.02162733
0.07050584
-0.002963628
-0.0294147
0.07319687
-0.003681524
-0.03908482
0.07296179
-0.004512454
-0.04999365
0.06977954
-0.005439756
-0.0616923
0.06360937
-0.006425449
-0.07374246
0.05440437
-0.007396765
-0.08567552
0.04215818
-0.008236479
-0.09682037
0.02707592
-0.008768426
-0.1057174
0.01009568
-0.008770652
-0.1097389
-0.006263188
-0.00811611
-0.1058842
-0.01884204
-0.006981216
-0.09386217
-0.02627483
-0.005753687
-0.07777109
-0.02854454
-0.004527153
-0.05959407
-0.02611083
-0.003325764
-0.04092043
-0.01997123
-0.002082143
-0.02327563
-0.01488685
-0.0006208507
-0.003018139
-0.01120342
-0.0001350214
0.01846093
-0.008406078
2.884539e-05
0.03669589
-0.005949321
0.0001196003
0.05270767
-0.003222305
0.000167102
0.06743139
0.002306744
0.0001647505
0.08112056
6.393255e-05
0.09127291
0.02740635
6.276945e-06
0.006376736
0.02753334
2.167446e-05
0.01025297
0.0283344
5.68376e-05
0.01047087
0.03088837
9.781037e-05
0.007740706
0.0372893
4.548094e-05
0.0009075497
0.0469543
3.232272e-05
-0.00914445
0.05720134
-0.0009041861
-0.01615378
0.06543274
-0.001566267
-0.02204715
0.07081079
-0.001980059
-0.0301934
0.07331049
-0.002391653
-0.04003126
0.07294239
-0.002878091
-0.05106345
0.0696715
-0.003417665
-0.0628314
0.06345905
-0.003972569
-0.07489664
0.05426335
-0.004476893
-0.08680046
0.04207655
-0.004845459
-0.09789047
0.02708697
-0.005009443
-0.1067312
0.01021163
-0.0049618
-0.1107543
-0.00604998
-0.004785745
-0.1070825
-0.01856368
-0.004479614
-0.09539945
-0.02599877
-0.003998253
-0.07962062
-0.02833151
-0.003363923
-0.06156488
-0.0259885
-0.002631566
-0.04278859
-0.01992189
-0.001772339
-0.02486195
-0.01483463
-0.000527976
-0.004273519
-0.01112674
-4.407424e-05
0.01770656
-0.008303713
2.179158e-05
0.0363652
-0.005847237
5.977019e-05
0.05270075
-0.003147575
8.418101e-05
0.06763229
0.002344504
8.463451e-05
0.0814234
3.269601e-05
0.09155181
0.02743292
3.352217e-06
0.006373222
0.0275938
1.144457e-05
0.01023667
0.02847981
2.873378e-05
0.01041483
0.03098541
6.362188e-05
0.007599338
0.03642557
0.0001061291
0.001299172
0.04592761
-0.000107857
-0.0092613
0.05752823
-0.0005204505
-0.01693743
0.06588003
-0.0007316124
-0.02235953
0.07107372
-0.0008805275
-0.03058783
0.07342991
-0.00104022
-0.04055365
0.07295453
-0.001223585
-0.05165796
0.06961438
-0.001413671
-0.06345658
0.06337186
-0.001574538
-0.07551121
0.05419094
-0.001648221
-0.08736591
0.0420721
-0.001581199
-0.09838218
0.02720524
-0.001408844
-0.1071745
0.01047749
-0.001327254
-0.111291
-0.005715837
-0.001602328
-0.1080025
-0.01828993
-0.002056512
-0.09678358
-0.02587112
-0.002234779
-0.08127915
-0.02837508
-0.002120112
-0.0632318
-0.02618825
-0.001836881
-0.04424565
-0.02015973
-0.001454048
-0.02599766
-0.01497522
-0.0004395831
-0.005152623
-0.01116905
0.0001187196
0.01708157
-0.008284647
5.293962e-05
0.0360562
-0.0058048
3.081468e-05
0.05262577
-0.003111018
3.112436e-05
0.06770125
0.002363391
3.040254e-05
0.08156427
1.167334e-05
0.09168844
0.02744551
-2.289668e-07
0.006372446
0.02762196
-1.539641e-06
0.01023167
0.02854542
-7.503792e-06
0.0103952
0.03112416
1.230136e-05
0.007531859
0.03667069
0.0001536357
0.001166687
0.04627177
-0.0002697585
-0.009347212
0.05783685
-9.680867e-05
-0.01697019
0.06609086
0.0001671401
-0.02242971
0.07119498
0.0002617676
-0.0307137
0.07348121
0.0003241478
-0.04071666
0.07295467
0.0004143567
-0.05183314
0.06958286
0.0005426275
-0.06361987
0.06333201
0.0007413545
-0.07563564
0.05417932
0.00105904
-0.087417
0.04215215
0.00151949
-0.09832861
0.02746706
0.001998048
-0.1070623
0.01096358
0.002134477
-0.1113464
-0.005177104
0.001520845
-0.1086202
-0.01795108
0.0004292126
-0.09797367
-0.02584689
-0.0003334327
-0.08270224
-0.02869013
-0.0006608014
-0.06454401
-0.02691619
-0.0006924165
-0.04518305
-0.02139191
-0.0005693968
-0.02636287
-0.01591306
-0.000169049
-0.005607456
-0.01147982
5.437666e-05
0.01642751
-0.00837144
1.627762e-05
0.03578773
-0.005817386
-8.481158e-06
0.05253809
-0.003105436
-1.472774e-05
0.0676987
0.002368101
-1.339128e-05
0.08160279
-5.059216e-06
0.09173251
0.02744048
-3.290208e-06
0.006374864
0.02760914
-1.342683e-05
0.01023852
0.02851085
-4.044944e-05
0.01041368
0.0312745
-0.0001696658
0.007546865
0.03802069
-0.0005797454
0.0005507445
0.04794705
0.0005621046
-0.00944068
0.05803257
0.00132649
-0.01628902
0.06598723
0.001223192
-0.02230737
0.07111967
0.001351186
-0.03061809
0.07342453
0.001639474
-0.04056541
0.07291072
0.00199465
-0.05163907
0.0695454
0.002427203
-0.06338101
0.0633028
0.002963155
-0.07534285
0.05418142
0.003637599
-0.08703932
0.04225379
0.004443199
-0.09781781
0.02778841
0.005189397
-0.1064608
0.01158103
0.005414943
-0.1109339
-0.004463498
0.004622953
-0.1088658
-0.0174777
0.003054447
-0.09888862
-0.02574682
0.001751504
-0.08385155
-0.02890428
0.0009743026
-0.0655624
-0.02732514
0.0005904253
-0.04588541
-0.02181274
0.0002875713
-0.02673458
-0.01614879
-2.486474e-05
-0.005826762
-0.01161945
0.0001087615
0.01618695
-0.008434402
-1.700698e-05
0.03566165
-0.005843077
-5.3944e-05
0.05246554
-0.003115705
-6.282296e-05
0.06764977
0.002364093
-5.782618e-05
0.081566
-2.199796e-05
0.09170648
0.02742177
-4.723679e-06
0.006380568
0.0275573
-1.659164e-05
0.01025768
0.02835916
-4.198155e-05
0.01046117
0.03055918
-9.873843e-05
0.007751417
0.03531439
-0.0001623518
0.001693717
0.04449887
0.0003468302
-0.009080849
0.05680094
0.001242339
-0.01724547
0.06553661
0.001807918
-0.02221234
0.07086963
0.002306211
-0.03026071
0.07328129
0.002861172
-0.04011527
0.07282938
0.003499332
-0.05110689
0.06949739
0.004241907
-0.0627864
0.0632683
0.00511174
-0.07469864
0.05416182
0.006126804
-0.08632645
0.04229852
0.007245584
-0.09698279
0.0280095
0.008230793
-0.1055242
0.01207653
0.00857219
-0.1101472
-0.003828501
0.007726615
-0.1086638
-0.01701484
0.00582043
-0.09934535
-0.02560365
0.004000327
-0.08456667
-0.02900698
0.002716419
-0.06619402
-0.02764211
0.001977276
-0.04625841
-0.02276303
0.0015395
-0.02663798
-0.01682977
0.0006475385
-0.005922694
-0.01177425
-0.0002014496
0.01600551
-0.008480226
-0.0001136286
0.03564258
-0.005880057
-0.0001111551
0.05240861
-0.003140192
-0.0001237986
0.0675544
0.002351961
-0.0001136748
0.08145375
-4.347107e-05
0.09160994
0.02739942
-6.344567e-06
0.006389135
0.02750833
-2.065969e-05
0.01028776
0.02825834
-5.211987e-05
0.01053409
0.03042019
-0.0001209479
0.007905674
0.03532154
-0.0002201834
0.001995002
0.04434725
0.0003943737
-0.008763222
0.05638561
0.001681721
-0.0168117
0.06515718
0.00246523
-0.02167604
0.07060112
0.00320115
-0.02961449
0.07311776
0.004015755
-0.03934383
0.07274434
0.004950273
-0.05023016
0.06945494
0.006019357
-0.06184355
0.06323145
0.007236848
-0.07372456
0.05410808
0.008600536
-0.08532582
0.04224717
0.01003172
-0.09592021
0.02804167
0.01125356
-0.1043998
0.01228992
0.01172747
-0.1091221
-0.003478362
0.01088296
-0.1080469
-0.01674066
0.008706429
-0.09925311
-0.02551591
0.006352232
-0.08470891
-0.02899728
0.004458155
-0.06630514
-0.02733455
0.00315307
-0.04629011
-0.02145884
0.002127415
-0.0270064
-0.01581985
0.0006277692
-0.005629131
-0.01159286
-5.702727e-05
0.01662561
-0.008509011
-0.0001374946
0.03576541
-0.005933056
-0.0001815723
0.05234188
-0.003183281
-0.0002073192
0.06738721
0.0023291
-0.0001918555
0.08123981
-7.387395e-05
0.09142041
0.02736828
-7.616259e-06
0.006398175
0.02743503
-1.968751e-05
0.01032253
0.02807048
-3.606169e-05
0.01062969
0.02996176
-5.955852e-05
0.008170265
0.03435297
-5.362151e-05
0.002485098
0.04309845
0.0004508309
-0.00830291
0.05550461
0.001764669
-0.01642567
0.06460298
0.002892379
-0.0210291
0.07027683
0.003966542
-0.0287063
0.07294584
0.005110102
-0.03823515
0.07267045
0.006380679
-0.048992
0.06942635
0.007806317
-0.06054077
0.06319426
0.009400206
-0.07241434
0.05401757
0.01114095
-0.08403681
0.04209041
0.01291226
-0.09463814
0.02786225
0.01439403
-0.1031098
0.01216884
0.01501534
-0.1078939
-0.003513401
0.01417264
-0.1070422
-0.0167887
0.01172256
-0.09857525
-0.02563704
0.008784685
-0.08417369
-0.02909029
0.006163897
-0.06575446
-0.02719505
0.004158257
-0.04573395
-0.02098631
0.002518951
-0.02661438
-0.01549691
0.0007077787
-0.005167264
-0.01152818
3.485643e-05
0.01719173
-0.008568014
-0.0001644954
0.03593254
-0.006025459
-0.0002758994
0.05222431
-0.003257051
-0.0003280473
0.06709771
0.002289658
-0.000305308
0.08087181
-0.0001180917
0.09109378
0.0273442
-1.264742e-05
0.006404046
0.02738995
-2.816333e-05
0.01035456
0.02797913
-3.74054e-05
0.01072513
0.02978872
-3.242333e-05
0.008407713
0.03408061
3.43349e-05
0.002936426
0.04273361
0.0004637406
-0.007649638
0.05513301
0.001866388
-0.0156001
0.06431777
0.003332305
-0.0199777
0.07008121
0.004766043
-0.02741292
0.07283437
0.006249222
-0.03674716
0.07262345
0.00786726
-0.047372
0.06940415
0.009669312
-0.05886193
0.06314175
0.01166973
-0.0707501
0.05387574
0.01382816
-0.08243616
0.04182112
0.01598617
-0.09310483
0.02747591
0.01776924
-0.101617
0.01172345
0.01855492
-0.1064358
-0.003948763
0.01768791
-0.1056475
-0.01722732
0.01492009
-0.09729623
-0.02610133
0.01134041
-0.08289613
-0.0295257
0.007916781
-0.06440431
-0.02750545
0.005154049
-0.04438409
-0.02116352
0.002931834
-0.02542894
-0.01563634
0.0007911783
-0.004192193
-0.01169493
4.877524e-05
0.01778951
-0.008753713
-0.0002564514
0.03606729
-0.006198973
-0.0004311327
0.05197597
-0.003382352
-0.0005097178
0.06660332
0.002223842
-0.0004715678
0.0802656
-0.0001825134
0.09055997
0.02731926
-2.489486e-05
0.006397276
0.02735581
-5.511854e-05
0.0103624
0.02792231
-7.373608e-05
0.01079376
0.02969653
-7.32066e-05
0.008614435
0.03396497
-1.338146e-05
0.003376785
0.0426108
0.0003631357
-0.006867195
0.05497183
0.001991732
-0.01453239
0.06411606
0.003911375
-0.01864749
0.06988833
0.005705183
-0.02581876
0.07268803
0.007504136
-0.03492584
0.07252598
0.009464405
-0.045391
0.06932452
0.01165845
-0.05680928
0.06302197
0.01409991
-0.06871792
0.05364481
0.01672675
-0.08049412
0.04142078
0.01933127
-0.09127229
0.02689058
0.02146856
-0.09985916
0.01098988
0.02243914
-0.1046915
-0.004739172
0.02150958
-0.1038377
-0.01802475
0.01835617
-0.09541817
-0.02688654
0.01406526
-0.08088841
-0.03025256
0.0097732
-0.06228844
-0.02810193
0.006204283
-0.04233098
-0.02157355
0.003379286
-0.02369183
-0.01595949
0.0008671082
-0.002862407
-0.01200509
-2.213432e-05
0.01843154
-0.009061624
-0.0004282026
0.03607442
-0.00647088
-0.0006682044
0.05147469
-0.003576254
-0.000773286
0.06577477
0.002120685
-0.0007084213
0.07929356
-0.0002734627
0.08971322
0.02728064
-4.739493e-05
0.006363099
0.02731218
-0.0001059748
0.01031451
0.02785416
-0.0001488085
0.01079643
0.02957656
-0.0001795565
0.008770378
0.03378333
-0.0001822128
0.003821571
0.04241126
5.754795e-05
-0.005969764
0.05466411
0.002094138
-0.01333288
0.06368337
0.004684941
-0.01720434
0.06945325
0.006797495
-0.02405643
0.07232087
0.008867616
-0.03285969
0.0722358
0.0111699
-0.04309811
0.06907654
0.01378426
-0.05439931
0.06274936
0.01671507
-0.06630844
0.05326403
0.01987491
-0.07817903
0.04085678
0.02299816
-0.08908748
0.02610759
0.02555148
-0.09776733
0.01000561
0.02673162
-0.1025931
-0.005822575
0.02569742
-0.1015732
-0.0191161
0.02207882
-0.09294324
-0.02793308
0.01699624
-0.07818836
-0.03120423
0.01176493
-0.05948458
-0.02888999
0.007326465
-0.0397049
-0.02210803
0.003836602
-0.02158723
-0.01642938
0.000884152
-0.001294838
-0.01246214
-0.0001652622
0.01897164
-0.009513211
-0.0006844149
0.03579693
-0.006869085
-0.001001013
0.05054663
-0.003863635
-0.001137744
0.06443075
0.001964158
-0.001034685
0.07777652
-0.0003966073
0.08840403
0.02721015
-8.414516e-05
0.006279737
0.02723632
-0.0001850307
0.01016618
0.02773327
-0.000259663
0.01067625
0.02933543
-0.0003291992
0.008822093
0.03334374
-0.000435981
0.004265696
0.04174461
-0.0004219684
-0.004863908
0.05363408
0.002194799
-0.01211627
0.06253476
0.005608194
-0.01590775
0.06845741
0.007888715
-0.02228851
0.07150711
0.01022689
-0.03063473
0.07157992
0.01291855
-0.04053498
0.0685243
0.01601374
-0.05164333
0.06221936
0.01950543
-0.06350856
0.05265994
0.02328038
-0.07545572
0.04008917
0.02700861
-0.08649527
0.0251234
0.0300494
-0.09527059
0.008805439
0.03146897
-0.1000688
-0.00713305
0.03028773
-0.09880623
-0.02042295
0.0261207
-0.08986922
-0.02916709
0.02016106
-0.07484135
-0.0323208
0.01391577
-0.05608714
-0.02983322
0.0085345
-0.03664602
-0.02280606
0.00430448
-0.01928293
-0.01704497
0.0008636471
0.0001223143
-0.01309158
-0.0003688742
0.01921574
-0.01014314
-0.00102464
0.03502184
-0.007432616
-0.001437436
0.04896354
-0.004280408
-0.001618592
0.06232968
0.001731089
-0.001469701
0.07546896
-0.0005546916
0.08642534
0.02708048
-0.0001408464
0.006116178
0.02710185
-0.0002974621
0.009858768
0.02752381
-0.000399086
0.01036171
0.02887946
-0.0004688052
0.008699041
0.03225507
-0.0005337568
0.004703617
0.03941345
-0.0003990057
-0.003074903
0.05031683
0.001876642
-0.01092488
0.06002909
0.005554667
-0.01541742
0.06663092
0.008492606
-0.020645
0.07007871
0.01139744
-0.02824113
0.07041987
0.01462356
-0.03767316
0.06754799
0.01829473
-0.04851599
0.06133528
0.02243745
-0.06028878
0.05176432
0.02692532
-0.07228237
0.03908289
0.03135783
-0.08343705
0.0239393
0.03496795
-0.09229727
0.007428578
0.0366636
-0.09704639
-0.008598412
0.03529447
-0.09548661
-0.02185267
0.03049454
-0.08619336
-0.03049197
0.02357047
-0.0708979
-0.03351863
0.01623805
-0.05219907
-0.03088301
0.009842037
-0.0333004
-0.02368589
0.004797833
-0.01695106
-0.01782585
0.0008318358
0.001132175
-0.01391913
-0.0006237386
0.01893998
-0.01098782
-0.001440852
0.03350197
-0.008208732
-0.001974517
0.04644941
-0.004876341
-0.002223082
0.05916471
0.001391455
-0.002038599
0.07204463
-0.0007350554
0.08348586
0.02684232
-0.0002260095
0.005828897
0.02687345
-0.0004552149
0.009317257
0.02723445
-0.0005837996
0.009769381
0.02839031
-0.0006502209
0.008298077
0.03139002
-0.0007403259
0.004825578
0.0380953
-0.0008887284
-0.00191655
0.04823588
0.001767757
-0.00973686
0.05770643
0.005821156
-0.0140234
0.06442973
0.00912694
-0.01850666
0.06809754
0.01251708
-0.02548729
0.06868561
0.01629331
-0.03445142
0.06605059
0.02058563
-0.04498967
0.06001556
0.02545826
-0.05662297
0.05052633
0.0307651
-0.06862111
0.03782061
0.03601741
-0.07985846
0.0225714
0.04029394
-0.08877947
0.005925294
0.042312
-0.09345704
-0.01013539
0.04071398
-0.0915695
-0.0232937
0.03518935
-0.08191722
-0.03177611
0.02720622
-0.06641487
-0.0346612
0.01871418
-0.04792624
-0.03191872
0.01123798
-0.02980709
-0.02464066
0.005306446
-0.01475369
-0.01872977
0.0007976319
0.001643474
-0.01493008
-0.0009131911
0.01793761
-0.01206149
-0.001911106
0.03099124
-0.009240923
-0.002590414
0.04270349
-0.005719979
-0.002938674
0.05457133
0.0008312729
-0.002735035
0.06709205
-0.0009323878
0.07916004
0.02638412
-0.0003464879
0.005359531
0.02643165
-0.0006599275
0.008451991
0.02672335
-0.0008086837
0.008811776
0.02766129
-0.0008741346
0.007548857
0.03002617
-0.000965857
0.004688472
0.03500925
-0.001093348
-0.0004407853
0.04395562
0.0008857213
-0.008237167
0.05443956
0.005594762
-0.01292734
0.06144277
0.009767267
-0.01607453
0.06529171
0.01361226
-0.02239992
0.0661925
0.01784704
-0.03090601
0.06391439
0.02277282
-0.04109439
0.05819897
0.02845909
-0.05252195
0.04892913
0.03471777
-0.064457
0.03631915
0.04093826
-0.07572041
0.02106305
0.04600598
-0.08466269
0.004363289
0.04840778
-0.08924602
-0.01164972
0.04653449
-0.08702511
-0.02461797
0.04016976
-0.07705735
-0.03284947
0.03100428
-0.06145901
-0.03554091
0.02126747
-0.04336963
-0.03272487
0.01265524
-0.02626825
-0.02546383
0.005766505
-0.01277585
-0.01964036
0.0007095467
0.001695859
-0.0160257
-0.00123093
0.01606946
-0.01330884
-0.002402385
0.02730332
-0.01053159
-0.003238925
0.0374581
-0.006870455
-0.003722454
0.0481596
-2.817423e-05
-0.003538444
0.06008516
-0.001084729
0.07283854
0.02546801
-0.0004978614
0.004639273
0.02550807
-0.0008836777
0.007175376
0.0256697
-0.001023456
0.007418174
0.02624351
-0.001045558
0.006422683
0.02777175
-0.001054155
0.004316114
0.03121667
-0.001103758
0.0006092693
0.03890811
-0.0001576237
-0.006662027
0.04953922
0.00487654
-0.01125343
0.05683845
0.01026875
-0.01365017
0.06119895
0.01432771
-0.01924548
0.0627168
0.01895577
-0.02719874
0.06106728
0.0245887
-0.03693977
0.05589946
0.03124836
-0.0480504
0.04703115
0.03866799
-0.05981614
0.03465669
0.04607101
-0.07102131
0.01949838
0.05210338
-0.07993034
0.002829087
0.05497546
-0.08439869
-0.01304583
0.05276607
-0.08186571
-0.02569639
0.04538625
-0.07166674
-0.03351428
0.03483737
-0.05612392
-0.03586795
0.02371779
-0.03863255
-0.03294944
0.01392241
-0.02273711
-0.02580784
0.006019652
-0.01096304
-0.02023767
0.0004822678
0.001339241
-0.01692025
-0.001594435
0.01335466
-0.01450253
-0.002880158
0.02241092
-0.01194969
-0.003850196
0.03059737
-0.008318136
-0.004495329
0.03962092
-0.001325168
-0.004366755
0.05043506
-0.0009832592
0.0635297
0.02359552
-0.0006508294
0.003609695
0.02357439
-0.001060065
0.005448332
0.02355548
-0.001158414
0.005586351
0.02377426
-0.001134892
0.004912533
0.02466596
-0.001105331
0.00357808
0.02687996
-0.001052907
0.001104621
0.0317965
-0.0002504884
-0.003708465
0.04053204
0.003113449
-0.008594328
0.04984215
0.008894587
-0.01213853
0.05568983
0.01369085
-0.01629054
0.05833251
0.01905035
-0.02350525
0.05767582
0.02564679
-0.03268629
0.05331025
0.03359683
-0.04334483
0.04501626
0.04251119
-0.05481646
0.03299265
0.05140214