/*--------------------------------*- C++ -*----------------------------------*\
| =========                 |                                                 |
| \\      /  F ield         | OpenFOAM: The Open Source CFD Toolbox           |
|  \\    /   O peration     | Version:  2506                                  |
|   \\  /    A nd           | Website:  www.openfoam.com                      |
|    \\/     M anipulation  |                                                 |
\*---------------------------------------------------------------------------*/
FoamFile
{
    version     2.0;
    format      ascii;
    arch        "LSB;label=32;scalar=64";
    class       volScalarField;
    location    "400/airRegion";
    object      rho;
}
// * * * * * * * * * * * * * * * * * * * * * * * * * * * * * * * * * * * * * //

dimensions      [1 -3 0 0 0 0 0];

internalField   nonuniform List<scalar> 
85779
(
1.15735
1.157436
1.157523
1.15761
1.157697
1.157783
1.157868
1.157944
1.157984
1.158014
1.158058
1.158109
1.158167
1.158237
1.158325
1.158441
1.158591
1.158771
1.158941
1.159076
1.159176
1.15925
1.159305
1.159377
1.159461
1.159548
1.159635
1.159723
1.15981
1.159897
1.157348
1.157433
1.157518
1.157604
1.15769
1.157774
1.157854
1.157914
1.157958
1.158002
1.15805
1.158104
1.158163
1.158233
1.158322
1.158439
1.15859
1.158772
1.158944
1.159081
1.159182
1.159259
1.159324
1.159385
1.159467
1.159552
1.159638
1.159725
1.159812
1.159897
1.157347
1.157431
1.157515
1.1576
1.157685
1.157768
1.157843
1.157889
1.157938
1.157988
1.15804
1.158096
1.158157
1.158228
1.158318
1.158435
1.158588
1.158773
1.158948
1.159087
1.15919
1.159268
1.159333
1.15939
1.159469
1.159554
1.15964
1.159726
1.159812
1.159897
1.157347
1.15743
1.157514
1.157598
1.157682
1.157763
1.157828
1.157875
1.157924
1.157976
1.158031
1.158088
1.15815
1.158223
1.158313
1.158432
1.158586
1.158774
1.158953
1.159095
1.159198
1.159276
1.159339
1.159392
1.159471
1.159555
1.15964
1.159726
1.159812
1.159897
1.157346
1.157429
1.157513
1.157597
1.15768
1.157759
1.157825
1.157865
1.157914
1.157967
1.158022
1.158081
1.158144
1.158217
1.158309
1.158428
1.158585
1.158776
1.158959
1.159102
1.159205
1.159281
1.159343
1.159393
1.159471
1.159555
1.15964
1.159725
1.159811
1.159896
1.157346
1.157429
1.157512
1.157596
1.157679
1.157757
1.157813
1.157857
1.157906
1.15796
1.158016
1.158075
1.158139
1.158213
1.158305
1.158426
1.158585
1.158778
1.158966
1.15911
1.159212
1.159286
1.159346
1.159394
1.159471
1.159554
1.159639
1.159725
1.159811
1.159896
1.157346
1.157429
1.157512
1.157596
1.157678
1.157755
1.157813
1.15785
1.1579
1.157953
1.15801
1.15807
1.158135
1.158209
1.158302
1.158424
1.158585
1.158782
1.158973
1.159117
1.159218
1.159291
1.159348
1.159394
1.159471
1.159554
1.159639
1.159725
1.159811
1.159896
1.157346
1.157429
1.157512
1.157595
1.157677
1.157751
1.157793
1.157841
1.157894
1.157949
1.158006
1.158066
1.158132
1.158207
1.1583
1.158424
1.158587
1.158788
1.158982
1.159126
1.159224
1.159295
1.15935
1.159395
1.159471
1.159553
1.159638
1.159724
1.159811
1.159896
1.157346
1.157429
1.157512
1.157595
1.157677
1.15775
1.157789
1.157837
1.15789
1.157945
1.158003
1.158063
1.158129
1.158205
1.158299
1.158424
1.158591
1.158796
1.158992
1.159134
1.15923
1.159298
1.159352
1.159395
1.159471
1.159553
1.159638
1.159724
1.15981
1.159896
1.157346
1.157429
1.157512
1.157595
1.157676
1.157749
1.157787
1.157835
1.157887
1.157943
1.158001
1.158062
1.158128
1.158204
1.158299
1.158425
1.158595
1.158804
1.159002
1.159142
1.159236
1.159302
1.159354
1.159396
1.159471
1.159553
1.159638
1.159724
1.15981
1.159896
1.157346
1.157429
1.157512
1.157595
1.157676
1.157749
1.157786
1.157833
1.157886
1.157941
1.157999
1.15806
1.158127
1.158203
1.158299
1.158426
1.158599
1.158811
1.15901
1.159149
1.15924
1.159305
1.159355
1.159396
1.159471
1.159553
1.159638
1.159724
1.15981
1.159896
1.157346
1.157428
1.157512
1.157595
1.157676
1.157747
1.157784
1.157832
1.157885
1.15794
1.157998
1.158059
1.158126
1.158203
1.158298
1.158426
1.158599
1.158814
1.159014
1.159153
1.159243
1.159307
1.159357
1.159397
1.159471
1.159553
1.159638
1.159724
1.15981
1.159896
1.157346
1.157428
1.157512
1.157595
1.157675
1.157739
1.157782
1.157831
1.157884
1.157939
1.157997
1.158058
1.158125
1.158202
1.158296
1.158423
1.158595
1.15881
1.159011
1.159152
1.159244
1.159308
1.159358
1.159397
1.159471
1.159553
1.159638
1.159724
1.15981
1.159896
1.157346
1.157428
1.157512
1.157595
1.157674
1.157742
1.157781
1.15783
1.157883
1.157939
1.157997
1.158058
1.158124
1.1582
1.158294
1.158418
1.158586
1.158797
1.159001
1.159146
1.159241
1.159308
1.159359
1.159398
1.159471
1.159553
1.159638
1.159724
1.15981
1.159896
1.157346
1.157428
1.157512
1.157594
1.157674
1.157741
1.157781
1.15783
1.157883
1.157938
1.157996
1.158057
1.158123
1.158198
1.15829
1.15841
1.158572
1.158777
1.158983
1.159135
1.159237
1.159306
1.15936
1.159402
1.159472
1.159553
1.159638
1.159724
1.15981
1.159896
1.157346
1.157428
1.157512
1.157594
1.157674
1.157737
1.157781
1.15783
1.157883
1.157938
1.157996
1.158057
1.158123
1.158197
1.158286
1.158402
1.158557
1.158755
1.158962
1.159121
1.15923
1.159304
1.159359
1.159403
1.159472
1.159553
1.159638
1.159724
1.15981
1.159896
1.157346
1.157428
1.157512
1.157595
1.157675
1.157745
1.157782
1.15783
1.157883
1.157939
1.157997
1.158057
1.158122
1.158195
1.158283
1.158396
1.158546
1.158736
1.158942
1.159107
1.159222
1.1593
1.159358
1.159405
1.159472
1.159553
1.159638
1.159724
1.15981
1.159896
1.157346
1.157428
1.157512
1.157595
1.157675
1.157746
1.157783
1.157831
1.157884
1.157939
1.157997
1.158057
1.158122
1.158195
1.158281
1.158392
1.158538
1.158722
1.158926
1.159094
1.159214
1.159296
1.159355
1.159399
1.159472
1.159553
1.159638
1.159724
1.15981
1.159896
1.157346
1.157429
1.157512
1.157595
1.157676
1.157748
1.157785
1.157833
1.157885
1.15794
1.157998
1.158058
1.158122
1.158194
1.158281
1.15839
1.158533
1.158714
1.158915
1.159084
1.159208
1.159292
1.159352
1.159397
1.159471
1.159553
1.159638
1.159724
1.15981
1.159896
1.157346
1.157429
1.157512
1.157595
1.157676
1.157749
1.157786
1.157834
1.157886
1.157942
1.157999
1.158059
1.158123
1.158195
1.158281
1.15839
1.158532
1.158711
1.158909
1.159078
1.159202
1.159288
1.15935
1.159395
1.159471
1.159553
1.159638
1.159724
1.15981
1.159896
1.157346
1.157429
1.157512
1.157595
1.157676
1.15775
1.157788
1.157836
1.157888
1.157943
1.158001
1.15806
1.158124
1.158196
1.158282
1.158392
1.158533
1.158711
1.158906
1.159074
1.159199
1.159286
1.159348
1.159395
1.159471
1.159553
1.159638
1.159724
1.15981
1.159896
1.157346
1.157429
1.157512
1.157595
1.157677
1.15775
1.15779
1.157838
1.157891
1.157946
1.158003
1.158062
1.158126
1.158198
1.158284
1.158394
1.158537
1.158714
1.158907
1.159072
1.159196
1.159283
1.159347
1.159394
1.159471
1.159553
1.159638
1.159724
1.15981
1.159896
1.157346
1.157429
1.157512
1.157595
1.157677
1.157752
1.157795
1.157843
1.157895
1.15795
1.158006
1.158065
1.158129
1.158201
1.158287
1.158398
1.158541
1.158719
1.158909
1.159072
1.159195
1.159281
1.159345
1.159394
1.159471
1.159554
1.159638
1.159724
1.159811
1.159896
1.157346
1.157429
1.157512
1.157596
1.157678
1.157755
1.157807
1.157851
1.157901
1.157954
1.15801
1.158069
1.158133
1.158204
1.158291
1.158402
1.158547
1.158725
1.158912
1.159072
1.159193
1.159279
1.159344
1.159394
1.159471
1.159554
1.159639
1.159725
1.159811
1.159896
1.157346
1.157429
1.157512
1.157596
1.157679
1.157757
1.157814
1.157858
1.157907
1.15796
1.158016
1.158074
1.158137
1.158208
1.158296
1.158408
1.158553
1.158731
1.158915
1.159072
1.159191
1.159277
1.159342
1.159393
1.159471
1.159554
1.159639
1.159725
1.159811
1.159896
1.157346
1.157429
1.157513
1.157597
1.15768
1.15776
1.157826
1.157866
1.157915
1.157968
1.158023
1.15808
1.158143
1.158214
1.158301
1.158414
1.158559
1.158738
1.158918
1.159071
1.159188
1.159273
1.15934
1.159393
1.159471
1.159555
1.15964
1.159725
1.159811
1.159896
1.157347
1.15743
1.157514
1.157598
1.157682
1.157763
1.157836
1.157877
1.157925
1.157977
1.158031
1.158088
1.158149
1.15822
1.158307
1.15842
1.158565
1.158743
1.15892
1.15907
1.159183
1.159269
1.159336
1.159392
1.159471
1.159555
1.15964
1.159726
1.159812
1.159897
1.157347
1.157431
1.157515
1.1576
1.157685
1.157768
1.157845
1.157902
1.15794
1.157989
1.158041
1.158096
1.158156
1.158226
1.158313
1.158426
1.158571
1.158748
1.158921
1.159067
1.159178
1.159262
1.159331
1.159389
1.159469
1.159554
1.15964
1.159726
1.159812
1.159897
1.157348
1.157433
1.157518
1.157604
1.15769
1.157774
1.157854
1.157915
1.157957
1.158002
1.158051
1.158103
1.158162
1.158231
1.158318
1.158431
1.158576
1.158752
1.158921
1.159063
1.159172
1.159254
1.159322
1.159385
1.159466
1.159552
1.159638
1.159725
1.159812
1.159897
1.15735
1.157436
1.157523
1.15761
1.157697
1.157783
1.157868
1.157943
1.157972
1.158012
1.158058
1.158109
1.158166
1.158235
1.158321
1.158434
1.158579
1.158754
1.158921
1.15906
1.159166
1.159245
1.159304
1.159377
1.159461
1.159548
1.159635
1.159723
1.15981
1.159897
1.157348
1.157433
1.157518
1.157604
1.15769
1.157774
1.157854
1.157919
1.157958
1.158002
1.15805
1.158104
1.158163
1.158233
1.158322
1.158438
1.158589
1.158771
1.158942
1.15908
1.159182
1.159259
1.159324
1.159385
1.159467
1.159552
1.159638
1.159725
1.159812
1.159897
1.157344
1.157424
1.157506
1.157589
1.157671
1.157751
1.157826
1.157889
1.157941
1.157992
1.158043
1.158098
1.158159
1.15823
1.158319
1.158436
1.158588
1.158772
1.158946
1.159085
1.159188
1.159267
1.159336
1.159403
1.15948
1.159562
1.159646
1.159731
1.159817
1.159901
1.157342
1.157419
1.157498
1.157578
1.157658
1.157735
1.157807
1.157869
1.157925
1.157979
1.158034
1.158091
1.158153
1.158225
1.158315
1.158433
1.158587
1.158773
1.158951
1.159092
1.159197
1.159277
1.159346
1.159414
1.159489
1.159569
1.159652
1.159735
1.159819
1.159902
1.157341
1.157416
1.157494
1.157572
1.15765
1.157725
1.157794
1.157854
1.157911
1.157968
1.158024
1.158083
1.158146
1.158219
1.15831
1.15843
1.158586
1.158775
1.158957
1.1591
1.159205
1.159285
1.159354
1.15942
1.159494
1.159572
1.159654
1.159736
1.159819
1.159901
1.15734
1.157415
1.157492
1.157569
1.157645
1.157718
1.157785
1.157844
1.157901
1.157958
1.158016
1.158076
1.15814
1.158214
1.158306
1.158427
1.158585
1.158777
1.158964
1.159109
1.159213
1.159292
1.159359
1.159423
1.159496
1.159573
1.159654
1.159736
1.159818
1.1599
1.15734
1.157414
1.15749
1.157567
1.157643
1.157714
1.157779
1.157837
1.157894
1.157951
1.158009
1.15807
1.158135
1.15821
1.158303
1.158425
1.158585
1.158781
1.158971
1.159117
1.159221
1.159298
1.159363
1.159425
1.159496
1.159573
1.159653
1.159734
1.159817
1.159898
1.15734
1.157414
1.15749
1.157566
1.157641
1.157711
1.157774
1.157831
1.157888
1.157945
1.158004
1.158065
1.158131
1.158207
1.1583
1.158424
1.158587
1.158786
1.15898
1.159125
1.159228
1.159303
1.159366
1.159426
1.159495
1.159572
1.159651
1.159733
1.159816
1.159898
1.15734
1.157414
1.15749
1.157565
1.157639
1.157709
1.157769
1.157826
1.157883
1.157941
1.158
1.158062
1.158128
1.158205
1.158299
1.158424
1.15859
1.158794
1.15899
1.159134
1.159234
1.159307
1.159368
1.159426
1.159495
1.159571
1.15965
1.159732
1.159815
1.159897
1.15734
1.157414
1.157489
1.157565
1.157639
1.157707
1.157766
1.157823
1.15788
1.157938
1.157997
1.158059
1.158126
1.158203
1.158298
1.158425
1.158595
1.158803
1.159001
1.159144
1.15924
1.159311
1.15937
1.159427
1.159495
1.15957
1.159649
1.159731
1.159815
1.159897
1.15734
1.157414
1.157489
1.157565
1.157638
1.157706
1.157764
1.157821
1.157878
1.157936
1.157996
1.158058
1.158125
1.158202
1.158299
1.158427
1.158601
1.158814
1.159013
1.159153
1.159246
1.159314
1.159372
1.159428
1.159495
1.159569
1.159649
1.159731
1.159814
1.159897
1.15734
1.157414
1.157489
1.157565
1.157638
1.157705
1.157763
1.15782
1.157877
1.157935
1.157994
1.158057
1.158124
1.158202
1.158299
1.158429
1.158607
1.158824
1.159023
1.15916
1.159251
1.159317
1.159373
1.159429
1.159495
1.159569
1.159648
1.15973
1.159814
1.159897
1.15734
1.157414
1.157489
1.157564
1.157637
1.157705
1.157762
1.157819
1.157876
1.157934
1.157993
1.158056
1.158123
1.158201
1.158298
1.15843
1.158609
1.158828
1.159028
1.159164
1.159254
1.159319
1.159375
1.159429
1.159495
1.159569
1.159648
1.15973
1.159814
1.159896
1.15734
1.157414
1.157489
1.157564
1.157637
1.157703
1.157761
1.157818
1.157875
1.157933
1.157993
1.158055
1.158123
1.1582
1.158297
1.158427
1.158605
1.158823
1.159025
1.159163
1.159255
1.159321
1.159376
1.15943
1.159495
1.159569
1.159648
1.15973
1.159814
1.159896
1.15734
1.157414
1.157489
1.157564
1.157636
1.157702
1.157761
1.157817
1.157874
1.157932
1.157992
1.158054
1.158122
1.158199
1.158294
1.158421
1.158594
1.158808
1.159013
1.159157
1.159252
1.15932
1.159377
1.159431
1.159496
1.159569
1.159648
1.15973
1.159814
1.159896
1.15734
1.157414
1.157489
1.157564
1.157636
1.157702
1.15776
1.157817
1.157874
1.157932
1.157992
1.158054
1.158121
1.158197
1.15829
1.158412
1.158577
1.158785
1.158993
1.159145
1.159247
1.159319
1.159377
1.159432
1.159496
1.159569
1.159648
1.15973
1.159814
1.159896
1.15734
1.157414
1.157489
1.157564
1.157636
1.157702
1.15776
1.157817
1.157874
1.157932
1.157992
1.158054
1.15812
1.158195
1.158285
1.158403
1.15856
1.158759
1.158969
1.159129
1.15924
1.159316
1.159376
1.159432
1.159496
1.159569
1.159648
1.15973
1.159814
1.159896
1.15734
1.157414
1.157489
1.157564
1.157636
1.157703
1.157761
1.157818
1.157875
1.157933
1.157992
1.158054
1.15812
1.158194
1.158282
1.158396
1.158546
1.158737
1.158946
1.159113
1.159231
1.159312
1.159374
1.159432
1.159496
1.159569
1.159648
1.15973
1.159814
1.159896
1.15734
1.157414
1.157489
1.157564
1.157637
1.157704
1.157762
1.157818
1.157875
1.157933
1.157992
1.158054
1.158119
1.158193
1.15828
1.158391
1.158537
1.158722
1.158928
1.159099
1.159223
1.159308
1.159372
1.15943
1.159495
1.159569
1.159648
1.15973
1.159814
1.159896
1.15734
1.157414
1.157489
1.157564
1.157637
1.157705
1.157763
1.157819
1.157876
1.157934
1.157993
1.158054
1.15812
1.158192
1.158279
1.158389
1.158532
1.158713
1.158916
1.159089
1.159216
1.159304
1.15937
1.159428
1.159495
1.159569
1.159648
1.15973
1.159814
1.159896
1.15734
1.157414
1.157489
1.157565
1.157638
1.157706
1.157764
1.15782
1.157877
1.157935
1.157994
1.158055
1.15812
1.158193
1.158279
1.158389
1.158531
1.158709
1.15891
1.159082
1.159211
1.1593
1.159368
1.159427
1.159495
1.159569
1.159648
1.15973
1.159814
1.159897
1.15734
1.157414
1.157489
1.157565
1.157638
1.157706
1.157765
1.157822
1.157879
1.157936
1.157995
1.158056
1.158121
1.158194
1.15828
1.15839
1.158532
1.15871
1.158907
1.159078
1.159207
1.159298
1.159366
1.159426
1.159494
1.159569
1.159649
1.159731
1.159814
1.159897
1.15734
1.157414
1.157489
1.157565
1.157639
1.157708
1.157767
1.157824
1.157881
1.157939
1.157997
1.158058
1.158123
1.158195
1.158282
1.158392
1.158535
1.158713
1.158908
1.159077
1.159205
1.159295
1.159364
1.159426
1.159495
1.15957
1.159649
1.159731
1.159815
1.159897
1.15734
1.157414
1.15749
1.157566
1.15764
1.157709
1.15777
1.157827
1.157884
1.157942
1.158
1.158061
1.158126
1.158198
1.158285
1.158396
1.158539
1.158718
1.15891
1.159077
1.159203
1.159293
1.159363
1.159426
1.159495
1.159571
1.15965
1.159732
1.159815
1.159897
1.15734
1.157414
1.15749
1.157566
1.157641
1.157712
1.157774
1.157832
1.157889
1.157946
1.158004
1.158065
1.158129
1.158201
1.158289
1.1584
1.158545
1.158724
1.158913
1.159077
1.159201
1.159291
1.159362
1.159425
1.159496
1.159572
1.159652
1.159733
1.159816
1.159898
1.15734
1.157414
1.157491
1.157567
1.157643
1.157715
1.157779
1.157838
1.157895
1.157952
1.15801
1.158069
1.158133
1.158205
1.158293
1.158405
1.158551
1.15873
1.158917
1.159077
1.159199
1.159288
1.159359
1.159424
1.159496
1.159573
1.159653
1.159734
1.159817
1.159899
1.15734
1.157415
1.157492
1.157569
1.157645
1.157719
1.157786
1.157845
1.157902
1.157959
1.158016
1.158075
1.158139
1.15821
1.158298
1.158411
1.158557
1.158736
1.158919
1.159076
1.159195
1.159284
1.159356
1.159423
1.159496
1.159573
1.159654
1.159736
1.159818
1.1599
1.157341
1.157416
1.157494
1.157572
1.15765
1.157725
1.157795
1.157855
1.157912
1.157968
1.158025
1.158083
1.158145
1.158216
1.158304
1.158417
1.158563
1.158742
1.158921
1.159074
1.15919
1.159278
1.159351
1.159419
1.159494
1.159572
1.159654
1.159736
1.159819
1.159901
1.157342
1.157419
1.157498
1.157578
1.157658
1.157736
1.157808
1.15787
1.157926
1.15798
1.158034
1.158091
1.158152
1.158222
1.158309
1.158422
1.158568
1.158746
1.158922
1.15907
1.159184
1.159271
1.159344
1.159413
1.159489
1.159569
1.159652
1.159735
1.159819
1.159902
1.157344
1.157424
1.157506
1.157589
1.157671
1.157751
1.157826
1.15789
1.157942
1.157992
1.158044
1.158098
1.158158
1.158227
1.158314
1.158427
1.158573
1.15875
1.158921
1.159066
1.159177
1.159262
1.159333
1.159402
1.15948
1.159562
1.159646
1.159731
1.159817
1.159901
1.157348
1.157433
1.157518
1.157604
1.15769
1.157774
1.157855
1.15792
1.157957
1.158002
1.158051
1.158104
1.158162
1.158231
1.158318
1.158431
1.158576
1.158752
1.158921
1.159063
1.159172
1.159254
1.159322
1.159385
1.159466
1.159552
1.159638
1.159725
1.159812
1.159897
1.157347
1.157431
1.157515
1.1576
1.157685
1.157768
1.157843
1.15789
1.157938
1.157988
1.158041
1.158096
1.158157
1.158228
1.158317
1.158434
1.158586
1.15877
1.158945
1.159085
1.159189
1.159268
1.159333
1.15939
1.159469
1.159554
1.15964
1.159726
1.159812
1.159897
1.157342
1.157419
1.157498
1.157578
1.157658
1.157735
1.157807
1.157869
1.157925
1.157979
1.158034
1.158091
1.158153
1.158225
1.158314
1.158432
1.158585
1.158771
1.158949
1.159091
1.159196
1.159277
1.159346
1.159414
1.159489
1.159569
1.159652
1.159735
1.159819
1.159902
1.157339
1.157412
1.157487
1.157564
1.15764
1.157714
1.157785
1.157849
1.157909
1.157967
1.158024
1.158083
1.158147
1.15822
1.158311
1.15843
1.158585
1.158773
1.158955
1.159099
1.159206
1.159288
1.159359
1.159429
1.159503
1.159581
1.159661
1.159743
1.159825
1.159907
1.157338
1.157408
1.157481
1.157555
1.157629
1.157701
1.15777
1.157835
1.157896
1.157956
1.158015
1.158076
1.15814
1.158215
1.158307
1.158427
1.158584
1.158776
1.158962
1.159108
1.159215
1.159298
1.159369
1.159439
1.159512
1.159588
1.159666
1.159747
1.159827
1.159907
1.157337
1.157406
1.157478
1.15755
1.157622
1.157692
1.15776
1.157824
1.157886
1.157947
1.158007
1.158069
1.158135
1.15821
1.158303
1.158425
1.158584
1.15878
1.15897
1.159118
1.159225
1.159306
1.159377
1.159445
1.159516
1.159591
1.159668
1.159747
1.159827
1.159906
1.157337
1.157406
1.157476
1.157547
1.157618
1.157687
1.157754
1.157817
1.157879
1.15794
1.158001
1.158063
1.15813
1.158206
1.1583
1.158423
1.158586
1.158785
1.158979
1.159127
1.159233
1.159313
1.159382
1.159448
1.159518
1.159591
1.159668
1.159746
1.159825
1.159904
1.157337
1.157405
1.157475
1.157546
1.157616
1.157684
1.15775
1.157813
1.157874
1.157935
1.157996
1.158059
1.158126
1.158203
1.158298
1.158423
1.158588
1.158792
1.158989
1.159136
1.15924
1.159318
1.159385
1.15945
1.159518
1.15959
1.159666
1.159744
1.159823
1.159902
1.157336
1.157405
1.157475
1.157545
1.157615
1.157682
1.157747
1.157809
1.15787
1.157931
1.157993
1.158056
1.158124
1.158201
1.158297
1.158424
1.158594
1.158802
1.159001
1.159147
1.159248
1.159323
1.159387
1.159451
1.159517
1.159589
1.159664
1.159742
1.159822
1.1599
1.157336
1.157405
1.157475
1.157545
1.157614
1.157681
1.157745
1.157807
1.157868
1.157929
1.15799
1.158054
1.158122
1.1582
1.158297
1.158427
1.158601
1.158815
1.159015
1.159157
1.159254
1.159327
1.15939
1.159451
1.159517
1.159587
1.159662
1.159741
1.159821
1.1599
1.157336
1.157405
1.157475
1.157545
1.157614
1.15768
1.157744
1.157806
1.157866
1.157927
1.157989
1.158053
1.158121
1.1582
1.158298
1.15843
1.15861
1.15883
1.159029
1.159167
1.15926
1.15933
1.159391
1.159452
1.159516
1.159586
1.159661
1.159739
1.15982
1.159899
1.157336
1.157405
1.157475
1.157544
1.157613
1.15768
1.157743
1.157805
1.157865
1.157926
1.157988
1.158052
1.158121
1.1582
1.158299
1.158434
1.158619
1.158843
1.159041
1.159175
1.159266
1.159333
1.159393
1.159452
1.159516
1.159586
1.159661
1.159739
1.159819
1.159899
1.157336
1.157405
1.157474
1.157544
1.157613
1.157679
1.157743
1.157804
1.157865
1.157925
1.157987
1.158051
1.15812
1.1582
1.1583
1.158436
1.158624
1.15885
1.159047
1.15918
1.159269
1.159336
1.159394
1.159453
1.159516
1.159586
1.15966
1.159738
1.159819
1.159899
1.157336
1.157405
1.157474
1.157544
1.157613
1.157679
1.157742
1.157803
1.157864
1.157925
1.157986
1.158051
1.15812
1.158199
1.158298
1.158434
1.15862
1.158845
1.159044
1.159179
1.159269
1.159337
1.159395
1.159454
1.159516
1.159585
1.15966
1.159738
1.159819
1.159898
1.157336
1.157405
1.157474
1.157544
1.157612
1.157678
1.157742
1.157803
1.157864
1.157924
1.157986
1.15805
1.158119
1.158197
1.158295
1.158426
1.158607
1.158827
1.15903
1.159171
1.159267
1.159337
1.159396
1.159454
1.159517
1.159585
1.15966
1.159738
1.159818
1.159898
1.157336
1.157405
1.157474
1.157544
1.157612
1.157678
1.157741
1.157803
1.157863
1.157924
1.157986
1.15805
1.158118
1.158195
1.15829
1.158415
1.158586
1.158799
1.159006
1.159158
1.159261
1.159335
1.159396
1.159455
1.159517
1.159586
1.15966
1.159738
1.159818
1.159898
1.157336
1.157405
1.157474
1.157544
1.157612
1.157678
1.157742
1.157803
1.157863
1.157924
1.157986
1.158049
1.158117
1.158193
1.158284
1.158403
1.158563
1.158766
1.158978
1.15914
1.159253
1.159331
1.159395
1.159454
1.159517
1.159586
1.15966
1.159738
1.159818
1.159898
1.157336
1.157405
1.157474
1.157544
1.157612
1.157679
1.157742
1.157803
1.157864
1.157924
1.157986
1.158049
1.158116
1.158191
1.15828
1.158395
1.158546
1.15874
1.158951
1.159122
1.159243
1.159327
1.159393
1.159454
1.159517
1.159586
1.15966
1.159738
1.159818
1.159898
1.157336
1.157405
1.157474
1.157544
1.157613
1.157679
1.157742
1.157804
1.157864
1.157925
1.157986
1.158049
1.158116
1.15819
1.158278
1.158389
1.158536
1.158722
1.158931
1.159106
1.159234
1.159323
1.159391
1.159453
1.159516
1.159586
1.15966
1.159738
1.159819
1.159899
1.157336
1.157405
1.157474
1.157544
1.157613
1.15768
1.157743
1.157804
1.157865
1.157925
1.157986
1.158049
1.158116
1.15819
1.158277
1.158387
1.15853
1.158712
1.158918
1.159095
1.159227
1.159319
1.159389
1.159452
1.159516
1.159586
1.15966
1.159738
1.159819
1.159899
1.157336
1.157405
1.157475
1.157545
1.157613
1.15768
1.157744
1.157805
1.157866
1.157926
1.157987
1.15805
1.158116
1.15819
1.158277
1.158386
1.158528
1.158708
1.158911
1.159088
1.159221
1.159315
1.159387
1.159451
1.159516
1.159586
1.159661
1.159739
1.159819
1.159899
1.157336
1.157405
1.157475
1.157545
1.157614
1.157681
1.157744
1.157806
1.157867
1.157927
1.157988
1.158051
1.158117
1.15819
1.158277
1.158387
1.158529
1.158708
1.158909
1.159084
1.159218
1.159313
1.159385
1.15945
1.159516
1.159587
1.159662
1.15974
1.15982
1.159899
1.157336
1.157405
1.157475
1.157545
1.157614
1.157682
1.157746
1.157808
1.157868
1.157929
1.15799
1.158053
1.158119
1.158192
1.158279
1.15839
1.158532
1.158711
1.158909
1.159083
1.159215
1.15931
1.159384
1.15945
1.159517
1.159588
1.159663
1.159741
1.159821
1.1599
1.157336
1.157405
1.157475
1.157545
1.157615
1.157683
1.157747
1.15781
1.157871
1.157932
1.157993
1.158055
1.158121
1.158194
1.158282
1.158393
1.158537
1.158716
1.158912
1.159082
1.159213
1.159308
1.159383
1.15945
1.159517
1.159589
1.159664
1.159742
1.159822
1.159901
1.157337
1.157405
1.157475
1.157546
1.157616
1.157685
1.15775
1.157813
1.157875
1.157935
1.157996
1.158058
1.158124
1.158197
1.158285
1.158397
1.158542
1.158722
1.158915
1.159083
1.159212
1.159306
1.159381
1.159449
1.159518
1.15959
1.159666
1.159744
1.159823
1.159902
1.157337
1.157406
1.157476
1.157548
1.157618
1.157688
1.157754
1.157818
1.15788
1.15794
1.158001
1.158063
1.158128
1.158201
1.158289
1.158402
1.158547
1.158728
1.158918
1.159083
1.159209
1.159303
1.159378
1.159448
1.159518
1.159591
1.159668
1.159746
1.159825
1.159904
1.157337
1.157407
1.157478
1.15755
1.157622
1.157693
1.157761
1.157825
1.157887
1.157947
1.158007
1.158068
1.158133
1.158206
1.158294
1.158407
1.158553
1.158734
1.158921
1.159081
1.159205
1.159298
1.159374
1.159445
1.159516
1.159591
1.159668
1.159747
1.159827
1.159906
1.157338
1.157408
1.157481
1.157555
1.157629
1.157701
1.15777
1.157835
1.157897
1.157956
1.158015
1.158075
1.158139
1.158211
1.158299
1.158413
1.158559
1.158739
1.158922
1.159079
1.159199
1.159291
1.159367
1.159439
1.159512
1.159588
1.159667
1.159747
1.159828
1.159908
1.157339
1.157412
1.157487
1.157564
1.15764
1.157714
1.157785
1.15785
1.15791
1.157968
1.158025
1.158083
1.158146
1.158217
1.158305
1.158418
1.158564
1.158743
1.158922
1.159075
1.159192
1.159281
1.159357
1.159429
1.159503
1.159581
1.159661
1.159743
1.159825
1.159907
1.157342
1.157419
1.157498
1.157578
1.157658
1.157736
1.157808
1.15787
1.157926
1.15798
1.158034
1.158091
1.158152
1.158222
1.158309
1.158423
1.158568
1.158746
1.158922
1.15907
1.159184
1.159271
1.159344
1.159413
1.159489
1.159569
1.159652
1.159735
1.159819
1.159902
1.157347
1.157431
1.157515
1.1576
1.157685
1.157768
1.157844
1.157891
1.157939
1.157989
1.158041
1.158096
1.158156
1.158226
1.158313
1.158426
1.158571
1.158748
1.158921
1.159066
1.159178
1.159262
1.159331
1.159389
1.159469
1.159554
1.15964
1.159726
1.159812
1.159897
1.157347
1.15743
1.157514
1.157598
1.157682
1.157763
1.157828
1.157875
1.157924
1.157977
1.158031
1.158088
1.15815
1.158222
1.158312
1.158429
1.158582
1.158767
1.158947
1.15909
1.159195
1.159274
1.159338
1.159392
1.159471
1.159555
1.15964
1.159726
1.159812
1.159897
1.157341
1.157416
1.157494
1.157572
1.15765
1.157725
1.157794
1.157854
1.157911
1.157968
1.158024
1.158083
1.158146
1.158219
1.158309
1.158428
1.158582
1.158769
1.158952
1.159097
1.159203
1.159284
1.159353
1.15942
1.159494
1.159572
1.159654
1.159736
1.159819
1.159901
1.157338
1.157408
1.157481
1.157555
1.157629
1.157701
1.15777
1.157835
1.157896
1.157956
1.158015
1.158076
1.15814
1.158214
1.158306
1.158426
1.158582
1.158773
1.158959
1.159106
1.159214
1.159297
1.159369
1.159439
1.159512
1.159588
1.159666
1.159747
1.159827
1.159907
1.157336
1.157404
1.157474
1.157545
1.157615
1.157686
1.157754
1.15782
1.157883
1.157945
1.158006
1.158068
1.158134
1.15821
1.158302
1.158423
1.158582
1.158777
1.158967
1.159116
1.159225
1.159309
1.159382
1.159453
1.159524
1.159599
1.159676
1.159754
1.159834
1.159912
1.157335
1.157402
1.15747
1.157539
1.157608
1.157676
1.157744
1.157809
1.157873
1.157936
1.157998
1.158062
1.158129
1.158205
1.158299
1.158422
1.158584
1.158782
1.158976
1.159127
1.159236
1.159319
1.159392
1.159462
1.159532
1.159605
1.159681
1.159758
1.159836
1.159913
1.157335
1.157401
1.157468
1.157536
1.157604
1.157671
1.157738
1.157803
1.157867
1.15793
1.157992
1.158057
1.158125
1.158202
1.158297
1.158421
1.158586
1.158789
1.158987
1.159137
1.159245
1.159327
1.159398
1.159467
1.159536
1.159608
1.159682
1.159758
1.159835
1.159911
1.157335
1.157401
1.157467
1.157534
1.157602
1.157668
1.157734
1.157799
1.157862
1.157925
1.157988
1.158053
1.158122
1.1582
1.158296
1.158422
1.158591
1.158799
1.158999
1.159148
1.159254
1.159333
1.159403
1.159469
1.159537
1.159608
1.159681
1.159756
1.159832
1.159908
1.157335
1.1574
1.157467
1.157534
1.1576
1.157667
1.157732
1.157796
1.157859
1.157922
1.157985
1.15805
1.15812
1.158198
1.158296
1.158425
1.158598
1.158812
1.159013
1.159159
1.159261
1.159338
1.159406
1.15947
1.159537
1.159606
1.159679
1.159753
1.15983
1.159906
1.157335
1.1574
1.157467
1.157533
1.1576
1.157666
1.157731
1.157794
1.157857
1.15792
1.157983
1.158049
1.158118
1.158198
1.158296
1.158429
1.158609
1.158829
1.15903
1.159171
1.159269
1.159343
1.159408
1.159471
1.159536
1.159605
1.159677
1.159751
1.159828
1.159904
1.157335
1.1574
1.157466
1.157533
1.157599
1.157665
1.15773
1.157793
1.157856
1.157919
1.157982
1.158048
1.158118
1.158198
1.158298
1.158435
1.158623
1.15885
1.159047
1.159182
1.159275
1.159346
1.159409
1.159471
1.159535
1.159603
1.159675
1.15975
1.159827
1.159903
1.157335
1.1574
1.157466
1.157533
1.157599
1.157665
1.157729
1.157793
1.157855
1.157918
1.157981
1.158047
1.158118
1.158199
1.1583
1.158442
1.158638
1.158869
1.159062
1.159192
1.159281
1.159349
1.159411
1.159472
1.159535
1.159602
1.159674
1.159748
1.159826
1.159902
1.157335
1.1574
1.157466
1.157533
1.157599
1.157665
1.157729
1.157792
1.157855
1.157918
1.157981
1.158047
1.158118
1.158199
1.158302
1.158447
1.158647
1.158879
1.159069
1.159197
1.159284
1.159352
1.159412
1.159472
1.159535
1.159602
1.159673
1.159748
1.159825
1.159902
1.157335
1.1574
1.157466
1.157533
1.157599
1.157664
1.157729
1.157792
1.157855
1.157917
1.157981
1.158046
1.158117
1.158198
1.158301
1.158444
1.158644
1.158874
1.159066
1.159196
1.159285
1.159353
1.159413
1.159473
1.159535
1.159601
1.159672
1.159747
1.159825
1.159902
1.157335
1.1574
1.157466
1.157533
1.157599
1.157664
1.157728
1.157792
1.157854
1.157917
1.15798
1.158046
1.158116
1.158197
1.158297
1.158435
1.158626
1.158853
1.15905
1.159187
1.159282
1.159353
1.159414
1.159474
1.159535
1.159601
1.159672
1.159747
1.159825
1.159902
1.157335
1.1574
1.157466
1.157533
1.157599
1.157664
1.157728
1.157792
1.157854
1.157917
1.15798
1.158045
1.158115
1.158194
1.15829
1.15842
1.158598
1.158817
1.159022
1.159172
1.159276
1.159351
1.159414
1.159474
1.159535
1.159602
1.159672
1.159747
1.159824
1.159902
1.157335
1.1574
1.157466
1.157533
1.157599
1.157664
1.157728
1.157792
1.157854
1.157917
1.15798
1.158045
1.158114
1.158191
1.158284
1.158405
1.158569
1.158776
1.158989
1.159152
1.159266
1.159347
1.159412
1.159473
1.159535
1.159602
1.159672
1.159747
1.159824
1.159902
1.157335
1.1574
1.157466
1.157533
1.157599
1.157664
1.157729
1.157792
1.157854
1.157917
1.15798
1.158045
1.158113
1.158189
1.158279
1.158394
1.158547
1.158742
1.158957
1.159131
1.159255
1.159342
1.15941
1.159473
1.159535
1.159602
1.159672
1.159747
1.159825
1.159902
1.157335
1.1574
1.157466
1.157533
1.157599
1.157664
1.157729
1.157792
1.157855
1.157917
1.15798
1.158044
1.158112
1.158187
1.158276
1.158388
1.158534
1.158721
1.158934
1.159113
1.159245
1.159338
1.159408
1.159472
1.159535
1.159602
1.159673
1.159747
1.159825
1.159902
1.157335
1.1574
1.157466
1.157533
1.157599
1.157665
1.157729
1.157792
1.157855
1.157917
1.15798
1.158045
1.158112
1.158187
1.158274
1.158384
1.158528
1.15871
1.15892
1.159101
1.159237
1.159333
1.159406
1.159471
1.159535
1.159602
1.159673
1.159748
1.159825
1.159902
1.157335
1.1574
1.157466
1.157533