/*--------------------------------*- C++ -*----------------------------------*\
| =========                 |                                                 |
| \\      /  F ield         | OpenFOAM: The Open Source CFD Toolbox           |
|  \\    /   O peration     | Version:  2506                                  |
|   \\  /    A nd           | Website:  www.openfoam.com                      |
|    \\/     M anipulation  |                                                 |
\*---------------------------------------------------------------------------*/
FoamFile
{
    version     2.0;
    format      ascii;
    arch        "LSB;label=32;scalar=64";
    class       volScalarField;
    location    "2000/floor";
    object      damage;
}
// * * * * * * * * * * * * * * * * * * * * * * * * * * * * * * * * * * * * * //

dimensions      [0 0 0 0 0 0 0];

internalField   nonuniform List<scalar> 
2700
(
0.01391852
0.01392612
0.01393423
0.01394162
0.01394824
0.0139541
0.01395925
0.01396374
0.01396764
0.01397094
0.0139736
0.01397566
0.01397721
0.01397827
0.01397882
0.01397883
0.01397831
0.01397727
0.0139757
0.01397356
0.01397082
0.01396744
0.01396341
0.01395872
0.01395333
0.01394721
0.01394033
0.01393267
0.01392437
0.01391679
0.01392608
0.01393362
0.01394164
0.01394893
0.01395541
0.01396114
0.01396614
0.01397046
0.01397419
0.01397732
0.01397985
0.01398182
0.01398331
0.01398433
0.01398485
0.01398486
0.01398436
0.01398336
0.01398184
0.01397977
0.01397711
0.01397384
0.01396993
0.01396536
0.0139601
0.01395412
0.01394737
0.01393985
0.01393169
0.01392422
0.01393433
0.01394176
0.01394963
0.01395675
0.01396306
0.0139686
0.01397342
0.01397757
0.01398113
0.01398411
0.01398651
0.01398838
0.0139898
0.01399076
0.01399126
0.01399127
0.0139908
0.01398984
0.01398838
0.0139864
0.01398385
0.0139807
0.01397692
0.01397251
0.01396741
0.01396159
0.01395501
0.01394767
0.01393967
0.01393233
0.01394193
0.01394922
0.01395692
0.01396386
0.01396998
0.01397533
0.01397998
0.01398396
0.01398736
0.01399019
0.01399247
0.01399425
0.01399559
0.01399651
0.01399698
0.01399699
0.01399654
0.01399563
0.01399424
0.01399234
0.0139899
0.01398687
0.01398324
0.01397898
0.01397404
0.01396839
0.01396199
0.01395482
0.013947
0.0139398
0.01394874
0.01395589
0.01396342
0.01397017
0.01397611
0.01398128
0.01398574
0.01398956
0.01399281
0.01399551
0.01399767
0.01399936
0.01400063
0.01400149
0.01400194
0.01400195
0.01400153
0.01400067
0.01399935
0.01399753
0.01399519
0.01399229
0.01398879
0.01398468
0.0139799
0.01397442
0.0139682
0.01396121
0.01395355
0.0139465
0.01395479
0.0139618
0.01396916
0.01397573
0.01398148
0.01398648
0.01399078
0.01399443
0.01399753
0.0140001
0.01400216
0.01400375
0.01400496
0.01400578
0.0140062
0.01400621
0.01400582
0.01400501
0.01400375
0.01400201
0.01399977
0.01399699
0.01399363
0.01398965
0.01398503
0.01397971
0.01397366
0.01396684
0.01395935
0.01395244
0.01396011
0.01396699
0.01397418
0.01398058
0.01398616
0.01399098
0.01399512
0.01399863
0.01400159
0.01400404
0.01400599
0.01400751
0.01400865
0.01400943
0.01400983
0.01400985
0.01400947
0.01400871
0.01400751
0.01400584
0.01400369
0.01400103
0.01399779
0.01399395
0.01398947
0.01398431
0.01397842
0.01397176
0.01396444
0.01395765
0.01396472
0.01397148
0.01397852
0.01398476
0.01399018
0.01399485
0.01399884
0.01400221
0.01400504
0.01400738
0.01400924
0.01401068
0.01401177
0.01401251
0.0140129
0.01401291
0.01401256
0.01401183
0.01401069
0.0140091
0.01400703
0.01400446
0.01400134
0.01399762
0.01399328
0.01398826
0.01398252
0.01397601
0.01396884
0.01396218
0.01396871
0.01397535
0.01398224
0.01398833
0.0139936
0.01399812
0.01400198
0.01400522
0.01400794
0.01401017
0.01401195
0.01401332
0.01401436
0.01401507
0.01401544
0.01401546
0.01401513
0.01401444
0.01401335
0.01401182
0.01400983
0.01400736
0.01400434
0.01400073
0.01399651
0.01399162
0.01398602
0.01397966
0.01397262
0.01396608
0.01397215
0.0139786
0.01398535
0.01399131
0.01399645
0.01400085
0.01400458
0.01400771
0.01401033
0.01401247
0.01401417
0.01401548
0.01401648
0.01401716
0.01401752
0.01401754
0.01401723
0.01401658
0.01401553
0.01401406
0.01401214
0.01400975
0.01400682
0.0140033
0.01399919
0.01399442
0.01398894
0.0139827
0.01397579
0.01396936
0.01397617
0.01398142
0.01398789
0.01399372
0.01399875
0.01400304
0.01400667
0.01400971
0.01401224
0.0140143
0.01401594
0.01401721
0.01401817
0.01401883
0.01401918
0.0140192
0.01401891
0.01401829
0.01401728
0.01401585
0.01401399
0.01401166
0.01400879
0.01400529
0.01400123
0.01399656
0.01399118
0.01398505
0.01397826
0.01397198
0.01398856
0.01398476
0.01398997
0.01399561
0.01400054
0.01400475
0.0140083
0.01401126
0.01401372
0.01401572
0.01401731
0.01401854
0.01401947
0.01402012
0.01402046
0.01402049
0.01402022
0.01401961
0.01401864
0.01401725
0.01401543
0.01401312
0.0140101
0.01400584
0.01400157
0.01399692
0.01399162
0.0139856
0.01397908
0.01397358
0.01398978
0.01398701
0.01399158
0.01399702
0.01400187
0.01400601
0.01400949
0.0140124
0.01401481
0.01401677
0.01401832
0.01401952
0.01402042
0.01402106
0.01402139
0.01402143
0.01402117
0.01402058
0.01401963
0.01401827
0.01401647
0.014014
0.01400943
0.01399818
0.01399116
0.0139862
0.01398093
0.01397515
0.01397005
0.01397048
0.01403657
0.01399599
0.01399342
0.01399803
0.01400276
0.01400684
0.01401028
0.01401315
0.01401552
0.01401745
0.01401897
0.01402015
0.01402104
0.01402167
0.014022
0.01402204
0.01402179
0.01402122
0.01402028
0.01401894
0.01401709
0.01401383
0.01400234
0.01395616
0.01393258
0.01392562
0.01392005
0.0139149
0.01391507
0.01394183
0.01404589
0.01399827
0.01399412
0.01399851
0.0140032
0.01400726
0.01401068
0.01401352
0.01401587
0.01401778
0.01401929
0.01402046
0.01402135
0.01402197
0.0140223
0.01402234
0.01402209
0.01402153
0.01402061
0.01401927
0.01401741
0.01401396
0.01400089
0.01394769
0.01392133
0.01391401
0.01390837
0.01390263
0.01389761
0.0138981
0.0140468
0.01399847
0.01399415
0.01399851
0.0140032
0.01400726
0.01401067
0.01401352
0.01401587
0.01401778
0.01401929
0.01402046
0.01402134
0.01402196
0.0140223
0.01402234
0.01402209
0.01402153
0.0140206
0.01401926
0.0140174
0.01401393
0.01400065
0.01394663
0.01391998
0.01391262
0.01390696
0.01390104
0.01389466
0.01388928
0.01404534
0.01399774
0.01399362
0.01399803
0.01400275
0.01400683
0.01401027
0.01401314
0.01401551
0.01401745
0.01401907
0.01402016
0.01402103
0.01402165
0.01402199
0.01402203
0.01402177
0.01402121
0.01402027
0.01401892
0.01401705
0.01401356
0.01400027
0.01394623
0.01391956
0.01391218
0.01390649
0.01390053
0.01389393
0.01388781
0.01403539
0.01399493
0.01399242
0.01399708
0.01400186
0.01400599
0.01400948
0.01401238
0.01401481
0.01401698
0.0140199
0.01401973
0.01402042
0.01402103
0.01402137
0.0140214
0.01402114
0.01402056
0.01401961
0.01401824
0.01401635
0.01401286
0.01399974
0.01394648
0.01392007
0.01391269
0.01390696
0.01390095
0.01389429
0.01388807
0.01398684
0.01398527
0.01399007
0.0139956
0.01400052
0.01400472
0.01400827
0.01401124
0.01401381
0.0140173
0.0140301
0.01402011
0.01401955
0.01402009
0.01402042
0.01402045
0.01402018
0.01401958
0.0140186
0.0140172
0.0140153
0.01401197
0.0140004
0.01395413
0.01393046
0.0139234
0.01391766
0.01391158
0.01390486
0.01389858
0.01397582
0.01398142
0.01398786
0.01399368
0.0139987
0.01400299
0.01400662
0.01400966
0.01401221
0.01401448
0.01401749
0.01401739
0.01401813
0.01401878
0.01401912
0.01401915
0.01401886
0.01401823
0.01401722
0.01401579
0.01401391
0.01401135
0.01400667
0.01399531
0.01398817
0.01398307
0.01397764
0.01397153
0.01396477
0.01395837
0.01397208
0.01397855
0.01398529
0.01399124
0.01399638
0.01400078
0.01400451
0.01400764
0.01401026
0.01401241
0.01401421
0.01401543
0.0140164
0.01401708
0.01401744
0.01401746
0.01401715
0.0140165
0.01401545
0.01401398
0.01401206
0.01400963
0.01400648
0.01400207
0.01399764
0.01399283
0.01398737
0.0139813
0.01397501
0.01396799
0.01396863
0.01397527
0.01398216
0.01398824
0.01399351
0.01399804
0.01400189
0.01400513
0.01400785
0.01401008
0.01401185
0.01401322
0.01401426
0.01401497
0.01401533
0.01401535
0.01401502
0.01401434
0.01401324
0.01401171
0.01400973
0.01400725
0.01400421
0.01400053
0.01399628
0.01399141
0.01398599
0.01398102
0.01397972
0.01396765
0.01396462
0.01397138
0.01397841
0.01398465
0.01399006
0.01399473
0.01399872
0.01400209
0.01400492
0.01400725
0.01400911
0.01401055
0.01401163
0.01401238
0.01401276
0.01401277
0.01401242
0.0140117
0.01401055
0.01400896
0.0140069
0.01400433
0.01400121
0.01399749
0.01399315
0.01398819
0.0139832
0.01398319
0.01400824
0.01397017
0.01395998
0.01396686
0.01397405
0.01398044
0.01398602
0.01399084
0.01399497
0.01399848
0.01400144
0.01400388
0.01400583
0.01400734
0.01400848
0.01400926
0.01400966
0.01400967
0.0140093
0.01400853
0.01400733
0.01400567
0.01400353
0.01400086
0.01399763
0.01399379
0.01398931
0.01398417
0.01397847
0.0139732
0.01397161
0.0139593
0.01395464
0.01396165
0.013969
0.01397556
0.01398131
0.0139863
0.01399059
0.01399425
0.01399734
0.0139999
0.01400196
0.01400355
0.01400475
0.01400557
0.01400599
0.014006
0.01400561
0.0140048
0.01400354
0.0140018
0.01399956
0.01399679
0.01399343
0.01398946
0.01398484
0.01397953
0.01397351
0.01396687
0.01396
0.0139525
0.01394856
0.01395571
0.01396323
0.01396998
0.01397591
0.01398107
0.01398553
0.01398934
0.01399258
0.01399528
0.01399744
0.01399912
0.01400039
0.01400125
0.0140017
0.0140017
0.01400128
0.01400043
0.0139991
0.01399729
0.01399495
0.01399206
0.01398857
0.01398445
0.01397968
0.01397421
0.013968
0.01396103
0.01395343
0.01394633
0.01394172
0.01394901
0.0139567
0.01396363
0.01396975
0.0139751
0.01397973
0.01398371
0.0139871
0.01398993
0.01399221
0.01399398
0.01399532
0.01399623
0.0139967
0.01399671
0.01399626
0.01399536
0.01399397
0.01399207
0.01398963
0.01398661
0.01398298
0.01397872
0.01397379
0.01396815
0.01396176
0.0139546
0.01394678
0.01393959
0.0139341
0.01394152
0.01394939
0.0139565
0.0139628
0.01396834
0.01397315
0.0139773
0.01398085
0.01398382
0.01398622
0.01398808
0.01398949
0.01399046
0.01399095
0.01399096
0.01399049
0.01398954
0.01398808
0.0139861
0.01398355
0.01398041
0.01397664
0.01397223
0.01396713
0.01396132
0.01395476
0.01394742
0.01393943
0.01393209
0.01392583
0.01393337
0.01394138
0.01394866
0.01395513
0.01396085
0.01396584
0.01397016
0.01397388
0.01397702
0.01397953
0.01398149
0.01398298
0.01398399
0.01398451
0.01398452
0.01398403
0.01398303
0.01398151
0.01397944
0.01397679
0.01397352
0.01396962
0.01396506
0.01395981
0.01395383
0.01394709
0.01393958
0.01393143
0.01392396
0.01391826
0.01392587
0.01393393
0.01394133
0.01394793
0.0139538
0.01395894
0.01396343
0.01396731
0.01397063
0.01397327
0.01397531
0.01397686
0.01397792
0.01397846
0.01397847
0.01397795
0.01397692
0.01397534
0.01397321
0.01397047
0.0139671
0.01396308
0.0139584
0.01395301
0.0139469
0.01394003
0.01393238
0.01392409
0.01391652
0.004901303
0.004925183
0.004949808
0.004972153
0.004992157
0.005009868
0.005025396
0.005038948
0.005050664
0.005060595
0.0050686
0.005074779
0.005079447
0.005082641
0.005084279
0.005084284
0.005082696
0.005079536
0.005074745
0.005068269
0.005059972
0.005049747
0.005037556
0.00502337
0.005007065
0.00498855
0.004967732
0.00494456
0.004919319
0.004895447
0.004925115
0.004948786
0.004973117
0.004995111
0.005014686
0.005031948
0.005047021
0.005060055
0.005071275
0.005080699
0.00508829
0.005094199
0.005098671
0.005101729
0.00510329
0.005103291
0.00510177
0.005098733
0.00509411
0.005087847
0.005079819
0.005069918
0.005058089
0.005044288
0.005028395
0.005010308
0.004989928
0.004967193
0.004942371
0.004918843
0.004950223
0.00497351
0.004997373
0.005018854
0.005037884
0.005054598
0.005069132
0.005081637
0.005092361
0.005101326
0.005108536
0.005114155
0.005118404
0.005121306
0.005122783
0.005122783
0.005121337
0.005118442
0.00511402
0.005108006
0.005100292
0.00509077
0.005079363
0.005066013
0.005050603
0.005033022
0.005013163
0.004990948
0.004966628
0.004943519
0.004973217
0.004996071
0.00501941
0.005040333
0.005058794
0.005074945
0.005088936
0.005100927
0.005111172
0.005119707
0.005126558
0.005131894
0.005135921
0.005138668
0.005140064
0.005140065
0.005138696
0.005135947
0.005131728
0.00512597
0.005118574
0.005109435
0.005098457
0.005085564
0.005070646
0.005053584
0.00503426
0.005012585
0.004988787
0.004966118
0.004993835
0.005016247
0.00503905
0.005059412
0.005077305
0.0050929
0.005106359
0.005117852
0.00512763
0.005135752
0.005142257
0.005147317
0.005151129
0.005153729
0.00515505
0.005155054
0.00515376
0.005151155
0.005147136
0.00514163
0.005134547
0.005125782
0.005115224
0.005102779
0.005088345
0.005071797
0.005053005
0.005031866
0.005008593
0.004986369
0.00501214
0.005034117
0.005056394
0.005076206
0.005093549
0.005108607
0.005121554
0.005132569
0.005141902
0.005149629
0.005155805
0.005160602
0.005164211
0.005166673
0.005167927
0.005167934
0.005166716
0.005164248
0.005160422
0.005155157
0.005148373
0.005139966
0.00512981
0.005117794
0.005103826
0.005087772
0.005069494
0.005048878
0.005026118
0.00500433
0.005028221
0.005049783
0.005071558
0.005090848
0.00510767
0.00512222
0.005134685
0.005145251
0.005154167
0.005161524
0.005167394
0.005171945
0.005175366
0.005177702
0.005178896
0.005178908
0.005177762
0.005175424
0.005171779
0.00516674
0.005160235
0.005152163
0.00514238
0.005130766
0.005117234
0.005101647
0.005083856
0.005063736
0.005041465
0.005020096
0.005042195
0.005063368
0.005084672
0.005103475
0.005119813
0.005133893
0.005145913
0.005156064
0.005164598
0.005171616
0.005177205
0.005181532
0.005184783
0.005187008
0.005188149
0.005188166
0.005187089
0.005184872
0.005181393
0.005176561
0.005170312
0.005162543
0.005153103
0.005141857
0.005128726
0.005113568
0.005096228
0.00507657
0.005054757
0.005033782
0.005054254
0.005075054
0.005095918
0.005114267
0.005130154
0.005143798
0.005155405
0.005165175
0.005173358
0.005180065
0.005185398
0.005189522
0.005192621
0.005194747
0.005195841
0.005195867
0.005194855
0.005192751
0.005189425
0.005184784
0.005178768
0.005171278
0.005162149
0.005151241
0.005138481
0.005123723
0.005106802
0.005087574
0.005066188
0.005045581
0.005064707
0.005084906
0.005105338
0.005123279
0.005138765
0.005152022
0.005163263
0.005172694
0.005180568
0.005187001
0.005192108
0.005196056
0.005199023
0.005201066
0.005202121
0.005202157
0.005201205
0.005199202
0.005196013
0.005191539
0.005185729
0.005178481
0.005169626
0.005159006
0.00514657
0.005132163
0.005115613
0.005096767
0.005075763
0.005055493
0.005077932
0.005093459
0.005113008
0.00513057
0.005145719
0.005158652
0.005169587
0.005178737
0.005186351
0.005192557
0.005197477
0.005201278
0.005204138
0.005206114
0.005207139
0.005207187
0.005206286
0.005204371
0.005201297
0.005196962
0.005191321
0.005184268
0.005175601
0.005165081
0.005152862
0.005138738
0.005122494
0.005103968
0.005083312
0.005063442
0.005134016
0.005104412
0.005119282
0.005136279
0.005151143
0.005163816
0.005174505
0.005183426
0.005190833
0.005196858
0.005201627
0.005205312
0.005208089
0.005210012
0.005211017
0.005211078
0.005210221
0.005208378
0.005205397
0.005201173
0.005195659
0.00518871
0.005179805
0.005167674
0.005154955
0.005140964
0.005124956
0.005106729
0.005086693
0.005068606
0.005114738
0.005108855
0.005123915
0.005140536
0.005155166
0.005167633
0.00517813
0.005186875
0.005194121
0.005200006
0.005204659
0.005208256
0.005210971
0.005212856
0.005213847
0.00521392
0.005213098
0.005211311
0.005208403
0.005204263
0.005198814
0.005191573
0.005179312
0.00514994
0.005129189
0.005114366
0.005098381
0.005080697
0.005063863
0.005060623
0.005272892
0.005132897
0.005128842
0.005143497
0.005157841
0.005170158
0.00518052
0.005189143
0.005196279
0.005202069
0.005206642
0.005210178
0.005212851
0.00521471
0.005215692
0.005215775
0.005214978
0.00521323
0.005210373
0.005206283
0.005200763
0.005191832
0.00516257
0.005025622
0.00494071
0.004919394
0.004899978
0.004883634
0.00488018
0.004961862
0.005297486
0.00513848
0.005130768
0.005144941
0.005159174
0.005171415
0.005181709
0.005190269
0.005197346
0.005203087
0.005207619
0.005211122
0.005213773
0.005215619
0.005216598
0.005216686
0.005215902
0.005214175
0.005211343
0.005207281
0.005201761
0.00519246
0.005159756
0.005005469
0.004912418
0.004890146
0.004870496
0.004852875
0.004836257
0.00483321
0.005299557
0.00513889
0.00513081
0.005144936
0.005159165
0.005171406
0.0051817
0.005190259
0.005197337
0.005203079
0.005207627
0.005211114
0.005213762
0.005215607
0.005216585
0.005216673
0.005215889
0.005214161
0.005211329
0.005207266
0.005201741
0.005192386
0.005159268
0.005003187
0.004909426
0.004887054
0.004867362
0.004849385
0.004829763
0.00481204
0.005295812
0.005136886
0.005129255
0.005143506
0.005157816
0.00517013
0.005180492
0.005189115
0.005196255
0.005202096
0.005207006
0.005210203
0.005212822
0.005214675
0.005215655
0.005215737
0.005214938
0.005213189
0.005210331
0.005206236
0.005200674
0.005191274
0.005158108
0.005001974
0.004908154
0.004885716
0.00486595
0.00484785
0.004827781
0.004808421
0.005269293
0.005129697
0.005125827
0.005140636
0.005155127
0.005167585
0.00517808
0.005186827
0.005194126
0.005200737
0.005210854
0.005208985
0.005210971
0.005212799
0.005213784
0.005213855
0.005213031
0.005211242
0.005208332
0.005204177
0.005198549
0.005189118
0.005156271
0.005001832
0.004908607
0.004886141
0.004866251
0.004848008
0.004827766
0.004808155
0.005104685
0.005103522
0.005119351
0.005136224
0.005151066
0.005163736
0.005174423
0.005183362
0.005191143
0.00520302
0.00526402
0.005211472
0.005208391
0.005209936
0.005210919
0.005210977
0.005210117
0.005208272
0.005205287
0.005201049
0.005195355
0.005186217
0.005156726
0.005019532
0.004934342
0.004912711
0.00489283
0.004874401
0.004853964
0.004834169
0.005074923
0.005093192
0.005112898
0.005130447
0.005145591
0.005158521
0.005169454
0.005178603
0.005186268
0.005193197
0.005203579
0.005201913
0.005204043
0.005205962
0.005206981
0.005207026
0.005206122
0.005204206
0.005201129
0.00519679
0.005191106
0.005183585
0.005171011
0.0051413
0.005120174
0.005104941
0.005088492
0.005069984
0.005049403
0.005029298
0.005064384
0.005084727
0.005105162
0.005123097
0.005138578
0.005151831
0.005163067
0.005172494
0.005180367
0.005186848
0.005192289
0.005195894
0.005198805
0.00520084
0.005201892
0.005201925
0.005200971
0.005198967
0.005195776
0.005191301
0.005185485
0.005178179
0.005168874
0.005156309
0.005143114
0.005128611
0.0051121
0.005093618
0.005074072
0.005052396
0.005054024
0.005074824
0.005095682
0.005114024
0.005129904
0.005143542
0.005155142
0.005164906
0.005173083
0.005179786
0.005185129
0.005189232
0.005192323
0.005194445
0.005195536
0.005195559
0.005194545
0.00519244
0.005189114
0.005184473
0.005178458
0.005170965
0.005161801
0.005150744
0.005137938
0.005123211
0.005106672
0.005090697
0.005085233
0.00504913
0.005041904
0.005063071
0.005084367
0.005103161
0.00511949
0.005133562
0.005145572
0.005155715
0.00516424
0.00517125
0.005176832
0.005181152
0.005184397
0.005186617
0.005187754
0.005187769
0.005186691
0.005184473
0.005180995
0.005176166
0.005169919
0.005162155
0.005152717
0.005141468
0.005128351
0.005113334
0.005097723
0.005095758
0.005191592
0.005054852
0.005027852
0.005049407
0.005071171
0.005090449
0.00510726
0.005121799
0.005134251
0.005144806
0.00515371
0.005161057
0.005166917
0.00517146
0.005174874
0.005177206
0.005178396
0.005178405
0.005177259
0.005174921
0.005171278
0.005166244
0.005159744
0.005151677
0.005141903
0.005130298
0.005116779
0.005101236
0.005083833
0.005066972
0.005060628
0.005023768
0.005011694
0.005033659
0.005055923
0.005075721
0.005093051
0.005108094
0.005121026
0.005132027
0.005141346
0.005149061
0.005155226
0.005160013
0.005163614
0.005166071
0.005167321
0.005167325
0.005166107
0.00516364
0.005159818
0.005154559
0.005147782
0.005139384
0.005129238
0.005117235
0.00510328
0.005087245
0.00506903
0.005048789
0.0050275
0.005004323
0.004993314
0.005015711
0.005038498
0.005058843
0.00507672
0.005092297
0.005105739
0.005117215
0.005126979
0.005135086
0.005141579
0.005146627
0.00515043
0.005153024
0.005154341
0.005154343
0.00515305
0.005150446
0.005146433
0.005140934
0.00513386
0.005125106
0.005114561
0.00510213
0.005087712
0.005071182
0.005052412
0.005031322
0.005008174
0.004985864
0.004972617
0.004995458
0.005018778
0.005039683
0.005058125
0.005074257
0.005088229
0.005100202
0.005110429
0.005118949
0.005125786
0.005131108
0.005135125
0.005137866
0.005139258
0.005139258
0.005137889
0.005135143
0.00513093
0.00512518
0.005117796
0.005108669
0.005097706
0.005084829
0.005069929
0.005052887
0.005033584
0.005011931
0.004988161
0.004965504
0.00494955
0.004972824
0.004996665
0.005018127
0.005037135
0.005053829
0.005068343
0.005080828
0.005091533
0.005100484
0.005107676
0.005113281
0.005117518
0.005120413
0.005121886
0.005121885
0.00512044
0.005117549
0.005113133
0.00510713
0.005099428
0.00508992
0.005078529
0.005065197
0.005049808
0.005032248
0.005012412
0.00499022
0.004965923
0.004942834
0.004924383
0.004948047
0.004972334
0.004994317
0.00501386
0.00503111
0.00504616
0.005059174
0.005070372
0.005079796
0.005087359
0.005093246
0.005097705
0.005100754
0.005102312
0.005102311
0.005100791
0.005097758
0.005093143
0.00508689
0.005078876
0.005068991
0.00505718
0.005043398
0.005027527
0.005009463
0.004989108
0.004966398
0.0049416
0.004918095
0.004900536
0.004924452
0.004948947
0.00497133
0.004991262
0.005008996
0.005024491
0.005038026
0.005049705
0.005059707
0.005067633
0.005073772
0.005078422
0.005081607
0.00508324
0.005083243
0.005081657
0.005078502
0.005073717
0.005067252
0.005058971
0.005048763
0.005036591
0.005022424
0.005006142
0.004987653
0.004966861
0.004943714
0.0049185
0.004894653
0.002983113
0.003061243
0.003138303
0.003207896
0.003270163
0.003325262
0.003373519
0.003415574
0.003451917
0.003482698
0.003507461
0.00352655
0.003541003
0.003550893
0.003555933
0.003555861
0.003550826
0.003540909
0.003525911
0.003505688
0.00347979
0.003447874
0.003409838
0.003365612
0.00331479
0.003257088
0.00319222
0.003119988
0.003040843
0.002962434
0.003061318
0.003138665
0.003214672
0.003283062
0.003343897
0.003397521
0.00344431
0.003484711
0.003519499
0.00354869
0.003572156
0.003590395
0.003604216
0.003613662
0.00361845
0.003618365
0.00361355
0.003604034
0.003589588
0.003570055
0.003545033
0.003514177
0.003477322
0.003434351
0.003384871
0.003328565
0.003265126
0.003194317
0.003116538
0.003039291
0.003140075
0.003216118
0.003290604
0.003357349
0.00341646
0.003468361
0.003513471
0.003552237
0.003585501
0.00361329
0.003635591
0.003652938
0.003666063
0.003675021
0.003679543
0.003679455
0.003674877
0.003665808
0.003651988
0.003633233
0.003609193
0.003579525
0.003543994
0.003502433
0.003454466
0.003399747
0.003337938
0.00326876
0.003192558
0.003116677
0.003211794
0.003286405
0.003359229
0.003424221
0.003481551
0.003531696
0.003575115
0.003612289
0.003644064
0.003670522
0.003691713
0.003708181
0.003720615
0.003729091
0.003733356
0.003733272
0.00372893
0.003720316
0.003707129
0.003689166
0.003666116
0.003637643
0.003603452
0.003563312
0.003516879
0.00346378
0.003403641
0.003336142
0.003261578
0.00318713
0.003276084
0.00334924
0.003420375
0.003483607
0.003539166
0.003587577
0.003629338
0.003664963
0.003695286
0.003720455
0.003740571
0.003756184
0.003767947
0.003775962
0.003779992
0.003779913
0.003775807
0.003767637
0.003755073
0.003737889
0.003715809
0.003688505
0.003655624
0.003616878
0.003571953
0.003520454
0.003461972
0.00339615
0.003323229
0.003250231
0.003333167
0.003404896
0.003474374
0.003535888
0.003589731
0.003636469
0.003676635
0.003710774
0.003739707
0.003763647
0.003782738
0.003797534
0.003808664
0.003816247
0.003820066
0.003819994
0.00381612
0.003808376
0.003796408
0.003779972
0.003758819
0.003732629
0.003700999
0.003663586
0.003620111
0.003570154
0.003513276
0.003449083
0.003377768
0.003306195
0.003383327
0.003453695
0.003521592
0.003581474
0.00363369
0.003678847
0.003717512
0.003750255
0.003777889
0.003800676
0.003818814
0.003832847
0.003843389
0.003850578
0.00385421
0.003854146
0.003850495
0.003843151
0.003831741
0.003816003
0.003795714
0.003770562
0.003740097
0.003703932
0.003661816
0.003613311
0.003557951
0.003495305
0.003425524
0.003355318
0.003426909
0.003496002
0.003562419
0.003620782
0.003671491
0.003715186
0.003752466
0.003783923
0.003810368
0.003832098
0.003849365
0.003862703
0.003872717
0.003879556
0.003883019
0.00388297
0.003879529
0.003872554
0.003861655
0.003846552
0.003827052
0.003802844
0.00377344
0.003738415
0.003697547
0.00365038
0.003596421
0.003535214
0.003466869
0.003397947
0.003464542
0.003532422
0.003597457
0.0036544
0.0037037
0.003746034
0.00378203
0.003812299
0.003837654
0.003858415
0.003874887
0.003887594
0.003897132
0.003903664
0.003906977
0.003906949
0.003903705
0.003897077
0.003886648
0.00387213
0.003853351
0.003830006
0.003801572
0.003767598
0.003727885
0.003681965
0.003629318
0.003569456
0.003502448
0.003434728
0.003496999
0.003563097
0.003626804
0.003682476
0.003730525
0.003771652
0.003806507
0.003835722
0.003860113
0.00388002
0.003895793
0.00390795
0.003917079
0.003923353
0.003926542
0.003926541
0.003923476
0.003917158
0.003907144
0.003893137
0.003874992
0.003852401
0.00382482
0.003791756
0.003753057
0.003708234
0.003656745
0.003598077
0.003532267
0.003465636
0.003538195
0.003589402
0.003650652
0.003705176
0.003752178
0.003792299
0.003826204
0.003854544
0.003878132
0.003897333
0.003912524
0.003924229
0.003933027
0.003939091
0.003942182
0.003942212
0.0039393
0.003933248
0.003923584
0.003910002
0.003892375
0.003870393
0.00384345
0.003810896
0.003772938
0.003729005
0.00367847
0.003620793
0.003556023
0.003490496
0.003801137
0.003623363
0.003669981
0.003722935
0.003769068
0.00380838
0.003841521
0.003869157
0.003892101
0.003910743
0.003925466
0.003936816
0.003945353
0.003951252
0.003954275
0.003954344
0.003951563
0.003945726
0.003936345
0.003923098
0.003905865
0.003884282
0.00385718
0.003821903
0.003783135
0.003739728
0.003689923
0.003633103
0.003569742
0.003507812
0.003631524
0.003631937
0.003683936
0.003736156
0.003781602
0.003820277
0.00385282
0.003879908
0.003902352
0.003920563
0.003934927
0.003946003
0.00395435
0.003960129
0.003963107
0.003963209
0.003960532
0.003954862
0.003945701
0.003932712
0.003915731
0.00389382
0.00386072
0.003788493
0.00372932
0.00368421
0.003634022
0.003578387
0.003521219
0.00349189
0.004204933
0.003690533
0.003696956
0.003745183
0.003789926
0.003828145
0.003860272
0.003886981
0.003909082
0.003927
0.003941118
0.003952002
0.00396022
0.003965918
0.003968868
0.003968998
0.003966394
0.003960841
0.003951833
0.003939008
0.003922004
0.003897102
0.003827643
0.003415309
0.003103844
0.003040471
0.00295393
0.002900341
0.002872982
0.003131533
0.004263091
0.003703173
0.003702362
0.003749632
0.00379408
0.003832068
0.003863983
0.003890494
0.003912414
0.003930177
0.003944168
0.003954951
0.003963103
0.003968762
0.003971699
0.003971844
0.003969278
0.003963786
0.003954857
0.003942118
0.003925168
0.0038997
0.00382397
0.00337439
0.00304219
0.002976742
0.00288921
0.002833306
0.002776823
0.002748135
0.004267067
0.003703879
0.003702419
0.003749613
0.003794055
0.003832042
0.003863956
0.003890467
0.003912386
0.003930154
0.003944181
0.003954926
0.003963071
0.003968727
0.003971662
0.003971806
0.003969239
0.003963745
0.003954815
0.003942074
0.003925115
0.003899559
0.003823127
0.003370242
0.003036575
0.002970933
0.002883319
0.002826807
0.002764754
0.002704031
0.004257866
0.003698204
0.003697646
0.003745164
0.003789851
0.003828066
0.003860193
0.003886901
0.00390901
0.003927047
0.003942047
0.003952043
0.003960134
0.003965817
0.003968762
0.003968887
0.003966279
0.003960723
0.003951712
0.003938878
0.003921804
0.00389611
0.003819525
0.003366477
0.003032624
0.002966777
0.002878936
0.002822113
0.002759191
0.002695344
0.004193874
0.003680595
0.003687572
0.003736275
0.003781478
0.003820137
0.003852678
0.00387977
0.003902338
0.003922436
0.003953985
0.00394787
0.00395432
0.003959964
0.003962928
0.003963024
0.00396034
0.003954665
0.003945497
0.003932482
0.003915197
0.003889328
0.003813155
0.003363101
0.003030361
0.002964311
0.002876081
0.002818814
0.002755396
0.002690929
0.003600164
0.003615645
0.003669762
0.00372274
0.003768845
0.00380815
0.003841289
0.003868963
0.003892876
0.003929704
0.004210569
0.003955774
0.003946109
0.003951025
0.003953997
0.003954055
0.003951266
0.003945423
0.003936032
0.003922758
0.00390522
0.003879679
0.003809508
0.003396415
0.003084083
0.003019738
0.002931942
0.002874099
0.002810065
0.002745014
0.003526098
0.003588279
0.003650285
0.003704814
0.003751806
0.003791918
0.003825816
0.003854153
0.003877859
0.00389894
0.00393131
0.003925822
0.003932721
0.00393865
0.003941724
0.003941746
0.003938827
0.003932769
0.003923098
0.003909504
0.003891805
0.003869032
0.003834963
0.003761685
0.003701343
0.003654958
0.003603372
0.003545705
0.003481079
0.003415153
0.003495959
0.003562547
0.003626282
0.003681941
0.003729977
0.003771091
0.003805932
0.003835134
0.003859521
0.003879539
0.003896185
0.003907445
0.003916439
0.003922693
0.003925872
0.003925862
0.003922791
0.003916468
0.00390645
0.003892439
0.003874284
0.0038516
0.003823258
0.003786638
0.003746385
0.003701377
0.003649944
0.003591925
0.003529029
0.003459587
0.003463863
0.003531744
0.003596762
0.003653687
0.003702969
0.003745283
0.003781259
0.003811508
0.003836845
0.003857594
0.003874088
0.003886741
0.00389626
0.00390278
0.003906083
0.003906047
0.003902798
0.003896166
0.003885735
0.003871216
0.00385244
0.003829093
0.003800606
0.003766385
0.003726594
0.003680731
0.003628765
0.003575321
0.003547188
0.003441365
0.003426054
0.003495128
0.003561521
0.003619859
0.003670542
0.003714212
0.003751465
0.003782894
0.003809314
0.003831022
0.003848268
0.003861585
0.003871582
0.003878409
0.003881862
0.003881805
0.00387836
0.003871384
0.003860486
0.003845388
0.003825896
0.0038017
0.003772306
0.003737286
0.00369645
0.003649539
0.003598975
0.003580109
0.003962555
0.003446536
0.003382234
0.003452581
0.003520447
0.003580296
0.003632478
0.0036776
0.00371623
0.003748937
0.003776539
0.003799297
0.003817406
0.003831414
0.003841937
0.003849112
0.003852733
0.003852663
0.003849009
0.003841666
0.003830262
0.003814534
0.003794261
0.003769127
0.003738685
0.003702547
0.003660466
0.003612049
0.003557389
0.003501179
0.003470289
0.003361995
0.003331849
0.003403542