/*--------------------------------*- C++ -*----------------------------------*\
| =========                 |                                                 |
| \\      /  F ield         | OpenFOAM: The Open Source CFD Toolbox           |
|  \\    /   O peration     | Version:  2506                                  |
|   \\  /    A nd           | Website:  www.openfoam.com                      |
|    \\/     M anipulation  |                                                 |
\*---------------------------------------------------------------------------*/
FoamFile
{
    version     2.0;
    format      ascii;
    arch        "LSB;label=32;scalar=64";
    class       volScalarField;
    location    "2000/floor";
    object      T;
}
// * * * * * * * * * * * * * * * * * * * * * * * * * * * * * * * * * * * * * //

dimensions      [0 0 0 1 0 0 0];

internalField   nonuniform List<scalar> 
2700
(
301.2077
301.2088
301.21
301.2112
301.2122
301.2131
301.2139
301.2146
301.2151
301.2156
301.216
301.2164
301.2166
301.2168
301.2168
301.2168
301.2168
301.2166
301.2164
301.216
301.2156
301.2151
301.2145
301.2137
301.2129
301.212
301.2109
301.2097
301.2085
301.2074
301.2088
301.2099
301.2111
301.2122
301.2132
301.2141
301.2149
301.2155
301.2161
301.2166
301.217
301.2173
301.2175
301.2176
301.2177
301.2177
301.2176
301.2175
301.2172
301.2169
301.2165
301.216
301.2154
301.2147
301.2139
301.213
301.2119
301.2108
301.2096
301.2085
301.2101
301.2111
301.2123
301.2134
301.2144
301.2152
301.216
301.2166
301.2171
301.2176
301.218
301.2183
301.2185
301.2186
301.2187
301.2187
301.2186
301.2185
301.2182
301.2179
301.2175
301.2171
301.2165
301.2158
301.215
301.2141
301.2131
301.212
301.2108
301.2097
301.2112
301.2123
301.2134
301.2145
301.2154
301.2163
301.217
301.2176
301.2181
301.2185
301.2189
301.2192
301.2194
301.2195
301.2196
301.2196
301.2195
301.2194
301.2191
301.2188
301.2185
301.218
301.2174
301.2168
301.216
301.2152
301.2142
301.2131
301.2119
301.2108
301.2123
301.2133
301.2144
301.2155
301.2164
301.2172
301.2179
301.2184
301.2189
301.2194
301.2197
301.2199
301.2201
301.2203
301.2203
301.2203
301.2203
301.2201
301.2199
301.2196
301.2193
301.2188
301.2183
301.2177
301.2169
301.2161
301.2151
301.2141
301.2129
301.2119
301.2132
301.2142
301.2153
301.2163
301.2172
301.218
301.2186
301.2192
301.2197
301.2201
301.2204
301.2206
301.2208
301.2209
301.221
301.221
301.2209
301.2208
301.2206
301.2203
301.22
301.2196
301.219
301.2184
301.2177
301.2169
301.216
301.2149
301.2138
301.2128
301.214
301.215
301.2161
301.2171
301.2179
301.2187
301.2193
301.2198
301.2203
301.2207
301.221
301.2212
301.2214
301.2215
301.2215
301.2215
301.2215
301.2214
301.2212
301.2209
301.2206
301.2202
301.2197
301.2191
301.2184
301.2176
301.2167
301.2157
301.2146
301.2136
301.2147
301.2157
301.2168
301.2177
301.2185
301.2193
301.2199
301.2204
301.2208
301.2212
301.2215
301.2217
301.2219
301.222
301.222
301.222
301.222
301.2219
301.2217
301.2214
301.2211
301.2207
301.2202
301.2197
301.219
301.2182
301.2173
301.2163
301.2152
301.2143
301.2153
301.2163
301.2173
301.2183
301.2191
301.2198
301.2204
301.2209
301.2213
301.2216
301.2219
301.2221
301.2223
301.2224
301.2224
301.2224
301.2224
301.2223
301.2221
301.2218
301.2215
301.2212
301.2207
301.2201
301.2195
301.2187
301.2179
301.2169
301.2158
301.2149
301.2159
301.2168
301.2178
301.2187
301.2195
301.2202
301.2208
301.2212
301.2216
301.222
301.2222
301.2224
301.2226
301.2227
301.2227
301.2227
301.2227
301.2226
301.2224
301.2222
301.2219
301.2215
301.2211
301.2205
301.2199
301.2192
301.2183
301.2174
301.2163
301.2154
301.2167
301.2173
301.2182
301.2191
301.2199
301.2205
301.2211
301.2215
301.2219
301.2223
301.2225
301.2227
301.2228
301.2229
301.223
301.223
301.2229
301.2228
301.2227
301.2225
301.2222
301.2218
301.2214
301.2208
301.2202
301.2195
301.2186
301.2177
301.2167
301.2158
301.2196
301.218
301.2185
301.2194
301.2201
301.2208
301.2213
301.2218
301.2222
301.2225
301.2227
301.2229
301.223
301.2231
301.2232
301.2232
301.2231
301.2231
301.2229
301.2227
301.2224
301.222
301.2216
301.2209
301.2202
301.2194
301.2186
301.2177
301.2167
301.216
301.2191
301.2183
301.2188
301.2196
301.2203
301.221
301.2215
301.222
301.2223
301.2226
301.2229
301.2231
301.2232
301.2233
301.2233
301.2233
301.2233
301.2232
301.2231
301.2228
301.2226
301.2222
301.2214
301.2197
301.2183
301.2175
301.2167
301.2158
301.2151
301.2151
301.2252
301.2197
301.2191
301.2198
301.2205
301.2211
301.2216
301.2221
301.2224
301.2227
301.223
301.2232
301.2233
301.2234
301.2234
301.2234
301.2234
301.2233
301.2232
301.2229
301.2226
301.2221
301.2203
301.2152
301.2106
301.2092
301.2081
301.2074
301.2073
301.2094
301.2268
301.2202
301.2193
301.2198
301.2206
301.2212
301.2217
301.2221
301.2225
301.2228
301.223
301.2232
301.2233
301.2234
301.2235
301.2235
301.2234
301.2233
301.2232
301.223
301.2227
301.2221
301.2201
301.2138
301.2086
301.2071
301.206
301.2052
301.2044
301.2044
301.227
301.2202
301.2193
301.2198
301.2206
301.2212
301.2217
301.2221
301.2225
301.2228
301.223
301.2232
301.2233
301.2234
301.2235
301.2235
301.2234
301.2233
301.2232
301.223
301.2227
301.2221
301.22
301.2136
301.2083
301.2068
301.2057
301.2048
301.2038
301.2031
301.2267
301.2201
301.2192
301.2198
301.2205
301.2211
301.2216
301.2221
301.2224
301.2227
301.223
301.2232
301.2233
301.2234
301.2234
301.2234
301.2234
301.2233
301.2231
301.2229
301.2226
301.222
301.2199
301.2136
301.2083
301.2068
301.2056
301.2047
301.2037
301.2028
301.225
301.2196
301.219
301.2196
301.2203
301.221
301.2215
301.222
301.2223
301.2227
301.2234
301.2231
301.2232
301.2233
301.2233
301.2233
301.2233
301.2232
301.223
301.2228
301.2225
301.2219
301.2199
301.2137
301.2084
301.2069
301.2058
301.2049
301.2039
301.203
301.2184
301.2179
301.2186
301.2194
301.2201
301.2208
301.2213
301.2218
301.2222
301.223
301.2257
301.2234
301.2231
301.2231
301.2232
301.2232
301.2231
301.223
301.2229
301.2227
301.2224
301.2218
301.22
301.2148
301.2103
301.2089
301.2078
301.2068
301.2058
301.2049
301.2165
301.2173
301.2182
301.2191
301.2199
301.2205
301.2211
301.2215
301.2219
301.2223
301.223
301.2228
301.2228
301.2229
301.223
301.223
301.2229
301.2228
301.2227
301.2225
301.2222
301.2217
301.221
301.2192
301.2179
301.217
301.2162
301.2152
301.2142
301.2133
301.2159
301.2168
301.2178
301.2187
301.2195
301.2202
301.2207
301.2212
301.2216
301.222
301.2223
301.2224
301.2226
301.2227
301.2227
301.2227
301.2227
301.2226
301.2224
301.2222
301.2219
301.2215
301.221
301.2203
301.2196
301.2188
301.218
301.2171
301.2161
301.2151
301.2153
301.2163
301.2173
301.2183
301.2191
301.2198
301.2203
301.2208
301.2213
301.2216
301.2219
301.2221
301.2222
301.2223
301.2224
301.2224
301.2223
301.2222
301.2221
301.2218
301.2215
301.2211
301.2207
301.2201
301.2194
301.2187
301.2179
301.2172
301.217
301.2152
301.2147
301.2157
301.2167
301.2177
301.2185
301.2192
301.2199
301.2204
301.2208
301.2212
301.2214
301.2217
301.2218
301.2219
301.222
301.222
301.2219
301.2218
301.2217
301.2214
301.2211
301.2207
301.2202
301.2196
301.219
301.2182
301.2175
301.2175
301.2202
301.2156
301.214
301.215
301.2161
301.2171
301.2179
301.2186
301.2193
301.2198
301.2203
301.2206
301.2209
301.2212
301.2213
301.2215
301.2215
301.2215
301.2215
301.2213
301.2212
301.2209
301.2206
301.2202
301.2197
301.2191
301.2184
301.2176
301.2167
301.216
301.2158
301.2139
301.2132
301.2142
301.2153
301.2163
301.2172
301.2179
301.2186
301.2192
301.2196
301.22
301.2203
301.2206
301.2208
301.2209
301.221
301.221
301.2209
301.2208
301.2206
301.2203
301.22
301.2195
301.219
301.2184
301.2177
301.2169
301.216
301.2149
301.2139
301.2128
301.2122
301.2133
301.2144
301.2154
301.2164
301.2171
301.2178
301.2184
301.2189
301.2193
301.2197
301.2199
301.2201
301.2202
301.2203
301.2203
301.2202
301.2201
301.2199
301.2196
301.2193
301.2188
301.2183
301.2176
301.2169
301.2161
301.2151
301.214
301.2129
301.2118
301.2112
301.2122
301.2134
301.2145
301.2154
301.2162
301.2169
301.2175
301.2181
301.2185
301.2188
301.2191
301.2193
301.2195
301.2195
301.2195
301.2195
301.2193
301.2191
301.2188
301.2184
301.218
301.2174
301.2168
301.216
301.2151
301.2141
301.213
301.2119
301.2108
301.21
301.2111
301.2123
301.2134
301.2143
301.2152
301.2159
301.2166
301.2171
301.2176
301.2179
301.2182
301.2184
301.2186
301.2186
301.2186
301.2186
301.2184
301.2182
301.2179
301.2175
301.217
301.2164
301.2158
301.215
301.2141
301.2131
301.2119
301.2107
301.2097
301.2088
301.2099
301.2111
301.2122
301.2132
301.2141
301.2148
301.2155
301.216
301.2165
301.2169
301.2172
301.2174
301.2176
301.2177
301.2177
301.2176
301.2174
301.2172
301.2169
301.2165
301.216
301.2154
301.2147
301.2139
301.2129
301.2119
301.2108
301.2095
301.2084
301.2077
301.2088
301.21
301.2111
301.2121
301.213
301.2138
301.2145
301.2151
301.2156
301.216
301.2163
301.2165
301.2167
301.2168
301.2168
301.2167
301.2165
301.2163
301.216
301.2156
301.215
301.2144
301.2137
301.2129
301.2119
301.2109
301.2097
301.2084
301.2073
300.5672
300.5698
300.5726
300.5752
300.5775
300.5795
300.5813
300.5829
300.5842
300.5853
300.5862
300.5869
300.5875
300.5878
300.588
300.588
300.5878
300.5875
300.5869
300.5861
300.5852
300.584
300.5826
300.5809
300.5791
300.5769
300.5745
300.5718
300.569
300.5664
300.5698
300.5724
300.5751
300.5777
300.5799
300.5819
300.5836
300.5851
300.5864
300.5875
300.5884
300.5891
300.5896
300.5899
300.5901
300.5901
300.5899
300.5895
300.589
300.5883
300.5873
300.5862
300.5848
300.5832
300.5814
300.5793
300.5769
300.5743
300.5715
300.5689
300.5727
300.5752
300.5779
300.5804
300.5826
300.5845
300.5862
300.5876
300.5888
300.5899
300.5907
300.5913
300.5918
300.5922
300.5923
300.5923
300.5921
300.5918
300.5913
300.5906
300.5897
300.5886
300.5873
300.5857
300.5839
300.5819
300.5796
300.577
300.5743
300.5717
300.5753
300.5778
300.5805
300.5829
300.585
300.5869
300.5885
300.5898
300.591
300.592
300.5928
300.5934
300.5939
300.5942
300.5943
300.5943
300.5942
300.5938
300.5933
300.5927
300.5918
300.5907
300.5895
300.588
300.5863
300.5843
300.582
300.5795
300.5768
300.5743
300.5777
300.5801
300.5827
300.5851
300.5871
300.5889
300.5905
300.5918
300.5929
300.5939
300.5946
300.5952
300.5956
300.5959
300.5961
300.5961
300.5959
300.5956
300.5951
300.5945
300.5937
300.5926
300.5914
300.59
300.5883
300.5864
300.5842
300.5818
300.5791
300.5767
300.5799
300.5822
300.5847
300.587
300.589
300.5908
300.5922
300.5935
300.5946
300.5955
300.5962
300.5967
300.5971
300.5974
300.5976
300.5975
300.5974
300.5971
300.5967
300.596
300.5953
300.5943
300.5931
300.5917
300.5901
300.5882
300.5861
300.5837
300.5811
300.5788
300.5817
300.584
300.5865
300.5887
300.5907
300.5923
300.5938
300.595
300.596
300.5969
300.5975
300.598
300.5984
300.5987
300.5988
300.5988
300.5987
300.5984
300.598
300.5974
300.5966
300.5957
300.5946
300.5932
300.5916
300.5898
300.5878
300.5855
300.5829
300.5806
300.5833
300.5856
300.588
300.5902
300.5921
300.5937
300.5951
300.5962
300.5972
300.598
300.5987
300.5992
300.5995
300.5998
300.5999
300.5999
300.5998
300.5995
300.5991
300.5985
300.5978
300.5969
300.5958
300.5945
300.593
300.5912
300.5892
300.5869
300.5844
300.5822
300.5847
300.5869
300.5893
300.5914
300.5933
300.5948
300.5962
300.5973
300.5982
300.599
300.5996
300.6001
300.6004
300.6007
300.6008
300.6008
300.6007
300.6004
300.6
300.5995
300.5988
300.5979
300.5968
300.5956
300.5941
300.5924
300.5904
300.5882
300.5858
300.5835
300.586
300.5881
300.5904
300.5925
300.5943
300.5958
300.5971
300.5982
300.5991
300.5998
300.6004
300.6008
300.6012
300.6014
300.6015
300.6015
300.6014
300.6012
300.6008
300.6003
300.5996
300.5987
300.5977
300.5965
300.595
300.5934
300.5914
300.5893
300.5869
300.5847
300.5882
300.5892
300.5913
300.5933
300.5951
300.5966
300.5978
300.5989
300.5997
300.6005
300.601
300.6015
300.6018
300.602
300.6021
300.6021
300.602
300.6018
300.6014
300.6009
300.6002
300.5994
300.5984
300.5972
300.5957
300.5941
300.5922
300.5901
300.5877
300.5856
300.598
300.5911
300.5921
300.594
300.5957
300.5972
300.5984
300.5994
300.6003
300.601
300.6015
300.6019
300.6022
300.6025
300.6026
300.6026
300.6025
300.6022
300.6019
300.6014
300.6007
300.5999
300.5988
300.5974
300.5958
300.5941
300.5923
300.5902
300.5879
300.586
300.5932
300.5913
300.5926
300.5945
300.5962
300.5976
300.5988
300.5998
300.6007
300.6013
300.6019
300.6023
300.6026
300.6028
300.6029
300.6029
300.6028
300.6026
300.6022
300.6017
300.6011
300.6002
300.5986
300.5954
300.5922
300.5903
300.5884
300.5863
300.5845
300.5839
300.6086
300.5944
300.5933
300.5948
300.5965
300.5979
300.5991
300.6001
300.6009
300.6016
300.6021
300.6025
300.6028
300.603
300.6031
300.6031
300.603
300.6028
300.6025
300.602
300.6013
300.6002
300.5969
300.5871
300.5752
300.5719
300.5677
300.5658
300.565
300.5681
300.6119
300.5953
300.5936
300.595
300.5966
300.598
300.5992
300.6002
300.601
300.6017
300.6022
300.6026
300.6029
300.6031
300.6032
300.6032
300.6031
300.6029
300.6026
300.6021
300.6014
300.6002
300.5964
300.5849
300.5714
300.5678
300.5634
300.5613
300.5595
300.5589
300.6123
300.5954
300.5936
300.595
300.5966
300.598
300.5992
300.6002
300.601
300.6017
300.6022
300.6026
300.6029
300.6031
300.6032
300.6032
300.6031
300.6029
300.6026
300.6021
300.6014
300.6002
300.5963
300.5845
300.5708
300.5672
300.5628
300.5607
300.5584
300.5566
300.6117
300.5951
300.5934
300.5948
300.5965
300.5979
300.5991
300.6001
300.6009
300.6016
300.6022
300.6025
300.6028
300.603
300.6031
300.6031
300.603
300.6028
300.6025
300.602
300.6013
300.6001
300.5962
300.5843
300.5707
300.5671
300.5627
300.5605
300.5582
300.5561
300.6081
300.594
300.593
300.5945
300.5962
300.5976
300.5988
300.5998
300.6007
300.6016
300.6033
300.6025
300.6026
300.6028
300.6029
300.6029
300.6028
300.6026
300.6022
300.6017
300.601
300.5998
300.596
300.5844
300.5709
300.5673
300.5629
300.5607
300.5584
300.5563
300.5913
300.5905
300.5921
300.594
300.5957
300.5972
300.5984
300.5994
300.6004
300.6024
300.6109
300.6034
300.6024
300.6025
300.6026
300.6026
300.6024
300.6022
300.6019
300.6014
300.6007
300.5995
300.5962
300.5864
300.5745
300.5711
300.5669
300.5646
300.5623
300.5601
300.5873
300.5891
300.5913
300.5933
300.5951
300.5965
300.5978
300.5989
300.5998
300.6007
300.6025
300.6017
300.6018
300.602
300.6021
300.6021
300.602
300.6018
300.6014
300.6009
300.6002
300.5993
300.5977
300.5944
300.5912
300.5892
300.5872
300.5851
300.5827
300.5805
300.5859
300.5881
300.5904
300.5925
300.5942
300.5958
300.5971
300.5981
300.5991
300.5998
300.6005
300.6008
300.6012
300.6014
300.6015
300.6015
300.6014
300.6011
300.6008
300.6002
300.5996
300.5987
300.5976
300.596
300.5944
300.5927
300.5908
300.5887
300.5865
300.5841
300.5847
300.5869
300.5893
300.5914
300.5932
300.5948
300.5961
300.5973
300.5982
300.599
300.5996
300.6001
300.6004
300.6006
300.6008
300.6008
300.6006
300.6004
300.6
300.5994
300.5987
300.5979
300.5968
300.5955
300.594
300.5923
300.5904
300.5887
300.5882
300.5841
300.5833
300.5856
300.588
300.5901
300.592
300.5936
300.595
300.5962
300.5972
300.598
300.5986
300.5991
300.5995
300.5997
300.5999
300.5999
300.5997
300.5995
300.5991
300.5985
300.5978
300.5969
300.5958
300.5945
300.5929
300.5912
300.5895
300.5894
300.596
300.5849
300.5817
300.584
300.5865
300.5887
300.5906
300.5923
300.5937
300.5949
300.596
300.5968
300.5975
300.598
300.5984
300.5986
300.5988
300.5988
300.5986
300.5984
300.5979
300.5973
300.5966
300.5956
300.5945
300.5932
300.5916
300.5898
300.5878
300.586
300.5854
300.5812
300.5798
300.5822
300.5847
300.587
300.589
300.5907
300.5922
300.5935
300.5945
300.5954
300.5961
300.5967
300.5971
300.5974
300.5975
300.5975
300.5973
300.597
300.5966
300.596
300.5952
300.5942
300.593
300.5917
300.59
300.5882
300.5861
300.5838
300.5814
300.5788
300.5777
300.5801
300.5827
300.585
300.5871
300.5889
300.5904
300.5917
300.5929
300.5938
300.5945
300.5951
300.5955
300.5958
300.596
300.596
300.5958
300.5955
300.595
300.5944
300.5936
300.5926
300.5913
300.5899
300.5882
300.5863
300.5841
300.5817
300.5791
300.5766
300.5753
300.5777
300.5804
300.5828
300.5849
300.5868
300.5884
300.5898
300.5909
300.5919
300.5927
300.5933
300.5938
300.5941
300.5942
300.5942
300.5941
300.5937
300.5933
300.5926
300.5917
300.5907
300.5894
300.5879
300.5862
300.5842
300.582
300.5795
300.5767
300.5743
300.5726
300.5751
300.5778
300.5803
300.5825
300.5844
300.5861
300.5875
300.5888
300.5898
300.5906
300.5913
300.5917
300.5921
300.5922
300.5922
300.5921
300.5917
300.5912
300.5905
300.5896
300.5885
300.5872
300.5856
300.5838
300.5818
300.5795
300.577
300.5742
300.5717
300.5697
300.5723
300.5751
300.5776
300.5798
300.5818
300.5836
300.5851
300.5863
300.5874
300.5883
300.589
300.5895
300.5898
300.59
300.59
300.5898
300.5894
300.5889
300.5882
300.5872
300.5861
300.5847
300.5831
300.5813
300.5792
300.5769
300.5742
300.5714
300.5688
300.5671
300.5697
300.5725
300.5751
300.5774
300.5794
300.5812
300.5828
300.5841
300.5852
300.5861
300.5868
300.5874
300.5877
300.5879
300.5879
300.5877
300.5873
300.5868
300.586
300.5851
300.5839
300.5825
300.5808
300.579
300.5768
300.5744
300.5718
300.5689
300.5663
300.344
300.3502
300.3567
300.3626
300.3679
300.3725
300.3766
300.3801
300.3832
300.3857
300.3878
300.3894
300.3906
300.3914
300.3918
300.3918
300.3914
300.3905
300.3892
300.3875
300.3853
300.3826
300.3793
300.3756
300.3712
300.3663
300.3608
300.3547
300.348
300.3417
300.3503
300.3565
300.3628
300.3686
300.3738
300.3783
300.3823
300.3857
300.3886
300.391
300.393
300.3945
300.3957
300.3965
300.3969
300.3968
300.3964
300.3956
300.3943
300.3927
300.3905
300.3879
300.3848
300.3811
300.3769
300.3721
300.3667
300.3607
300.3541
300.3479
300.357
300.363
300.3692
300.3749
300.3799
300.3843
300.3881
300.3914
300.3942
300.3965
300.3984
300.3998
300.4009
300.4017
300.402
300.402
300.4016
300.4008
300.3996
300.398
300.396
300.3934
300.3904
300.3869
300.3828
300.3781
300.3729
300.367
300.3606
300.3544
300.3631
300.369
300.3751
300.3806
300.3854
300.3897
300.3933
300.3965
300.3991
300.4014
300.4032
300.4045
300.4056
300.4063
300.4066
300.4066
300.4062
300.4055
300.4043
300.4028
300.4008
300.3984
300.3955
300.392
300.3881
300.3836
300.3785
300.3727
300.3664
300.3604
300.3686
300.3743
300.3803
300.3856
300.3903
300.3944
300.398
300.401
300.4035
300.4056
300.4073
300.4086
300.4096
300.4103
300.4106
300.4106
300.4102
300.4095
300.4084
300.4069
300.405
300.4027
300.3999
300.3966
300.3928
300.3884
300.3834
300.3778
300.3717
300.3658
300.3734
300.3791
300.3849
300.3901
300.3946
300.3986
300.402
300.4049
300.4073
300.4093
300.4109
300.4122
300.4131
300.4137
300.414
300.414
300.4136
300.413
300.4119
300.4105
300.4087
300.4065
300.4038
300.4006
300.3969
300.3926
300.3878
300.3823
300.3763
300.3706
300.3777
300.3832
300.3889
300.394
300.3984
300.4022
300.4055
300.4082
300.4106
300.4125
300.414
300.4152
300.4161
300.4167
300.4169
300.4169
300.4166
300.4159
300.415
300.4136
300.4119
300.4097
300.4071
300.404
300.4004
300.3963
300.3916
300.3863
300.3804
300.3747
300.3814
300.3868
300.3924
300.3973
300.4016
300.4053
300.4085
300.4111
300.4134
300.4152
300.4166
300.4177
300.4186
300.4191
300.4194
300.4194
300.4191
300.4185
300.4175
300.4162
300.4145
300.4125
300.41
300.407
300.4035
300.3995
300.3949
300.3897
300.3839
300.3784
300.3846
300.3899
300.3954
300.4002
300.4044
300.4079
300.411
300.4136
300.4157
300.4174
300.4188
300.4199
300.4207
300.4212
300.4215
300.4214
300.4211
300.4206
300.4196
300.4184
300.4168
300.4148
300.4123
300.4095
300.4061
300.4022
300.3977
300.3926
300.3869
300.3815
300.3876
300.3926
300.3979
300.4026
300.4067
300.4101
300.4131
300.4156
300.4176
300.4193
300.4206
300.4216
300.4224
300.4229
300.4231
300.4231
300.4228
300.4223
300.4214
300.4202
300.4186
300.4167
300.4143
300.4115
300.4082
300.4044
300.4
300.395
300.3895
300.3841
300.3929
300.3951
300.3999
300.4045
300.4085
300.4119
300.4148
300.4172
300.4192
300.4208
300.4221
300.423
300.4238
300.4243
300.4245
300.4245
300.4242
300.4237
300.4228
300.4216
300.4201
300.4182
300.4159
300.4131
300.4099
300.4061
300.4018
300.3969
300.3915
300.3862
300.4269
300.3996
300.4017
300.4061
300.41
300.4133
300.4161
300.4184
300.4204
300.4219
300.4232
300.4241
300.4248
300.4253
300.4255
300.4255
300.4252
300.4247
300.4239
300.4227
300.4213
300.4194
300.417
300.4139
300.4103
300.4066
300.4024
300.3975
300.3922
300.3874
300.4026
300.3993
300.4029
300.4072
300.411
300.4143
300.4171
300.4193
300.4212
300.4228
300.424
300.4249
300.4256
300.4261
300.4263
300.4263
300.426
300.4255
300.4247
300.4236
300.4221
300.4201
300.417
300.4112
300.4045
300.4003
300.3955
300.3908
300.3861
300.3832
300.4445
300.4053
300.4042
300.408
300.4117
300.415
300.4177
300.42
300.4218
300.4233
300.4245
300.4254
300.4261
300.4266
300.4268
300.4268
300.4265
300.426
300.4252
300.4241
300.4226
300.4203
300.4146
300.3984
300.3728
300.3652
300.3437
300.3387
300.3357
300.3382
300.4508
300.4069
300.4048
300.4084
300.4121
300.4153
300.418
300.4203
300.4221
300.4236
300.4248
300.4257
300.4264
300.4268
300.427
300.427
300.4268
300.4263
300.4255
300.4244
300.4229
300.4204
300.4141
300.395
300.3663
300.3582
300.3361
300.3308
300.3262
300.3233
300.4514
300.407
300.4048
300.4084
300.4121
300.4153
300.418
300.4203
300.4221
300.4236
300.4248
300.4257
300.4264
300.4268
300.427
300.427
300.4268
300.4263
300.4255
300.4244
300.4229
300.4204
300.4139
300.3945
300.3654
300.3573
300.3352
300.3298
300.3246
300.3198
300.4504
300.4064
300.4044
300.408
300.4117
300.415
300.4177
300.4199
300.4218
300.4234
300.4248
300.4255
300.4261
300.4266
300.4268
300.4268
300.4265
300.426
300.4252
300.4241
300.4226
300.4201
300.4136
300.3942
300.3651
300.3569
300.3348
300.3294
300.324
300.3189
300.4434
300.4044
300.4034
300.4072
300.411
300.4143
300.417
300.4193
300.4213
300.4233
300.4272
300.4254
300.4256
300.4261
300.4263
300.4263
300.426
300.4255
300.4247
300.4235
300.422
300.4196
300.4131
300.3941
300.3653
300.3571
300.335
300.3295
300.3241
300.319
300.398
300.3977
300.4017
300.406
300.4099
300.4133
300.4161
300.4184
300.4206
300.4251
300.4451
300.4273
300.4251
300.4253
300.4255
300.4255
300.4252
300.4247
300.4239
300.4227
300.4212
300.4188
300.4131
300.3968
300.3711
300.3634
300.3418
300.3364
300.3309
300.3257
300.3902
300.3948
300.3999
300.4045
300.4085
300.4119
300.4147
300.4171
300.4192
300.4213
300.4252
300.4235
300.4238
300.4242
300.4245
300.4244
300.4242
300.4236
300.4228
300.4216
300.4201
300.418
300.4149
300.4089
300.4022
300.3978
300.3929
300.3879
300.3825
300.3772
300.3874
300.3925
300.3978
300.4026
300.4066
300.4101
300.413
300.4155
300.4176
300.4193
300.4208
300.4216
300.4223
300.4229
300.4231
300.4231
300.4228
300.4222
300.4213
300.4201
300.4186
300.4166
300.4141
300.4109
300.4072
300.4034
300.399
300.3941
300.3889
300.3832
300.3846
300.3899
300.3953
300.4001
300.4043
300.4079
300.4109
300.4135
300.4156
300.4174
300.4188
300.4198
300.4206
300.4211
300.4214
300.4214
300.4211
300.4205
300.4196
300.4183
300.4167
300.4147
300.4123
300.4093
300.4059
300.402
300.3977
300.3934
300.3912
300.3825
300.3814
300.3868
300.3923
300.3973
300.4015
300.4052
300.4084
300.4111
300.4133
300.4151
300.4166
300.4177
300.4185
300.4191
300.4193
300.4193
300.419
300.4184
300.4174
300.4161
300.4145
300.4124
300.4099
300.4069
300.4034
300.3994
300.3953
300.394
300.4067
300.3832
300.3776
300.3831
300.3888
300.3939
300.3983
300.4021
300.4054
300.4082
300.4105
300.4124
300.4139
300.4151
300.416
300.4166
300.4168
300.4168
300.4165
300.4158
300.4148
300.4135
300.4118
300.4096
300.407
300.4039
300.4003
300.3962
300.3916
300.3872
300.3847
300.3758
300.3733
300.379
300.3848
300.39
300.3945
300.3985
300.4019
300.4048
300.4072
300.4092
300.4108
300.412
300.413
300.4136
300.4139
300.4139
300.4135
300.4128
300.4118
300.4104
300.4086
300.4064
300.4037
300.4005
300.3968
300.3925
300.3877
300.3824
300.3767
300.3706
300.3685
300.3742
300.3802
300.3855
300.3902
300.3943
300.3978
300.4008
300.4034
300.4055
300.4072
300.4085
300.4095
300.4101
300.4104
300.4104
300.4101
300.4093
300.4083
300.4068
300.4049
300.4026
300.3998
300.3965
300.3926
300.3883
300.3833
300.3777
300.3716
300.3657
300.363
300.3688
300.3749
300.3804
300.3853
300.3895
300.3932
300.3963
300.399
300.4012
300.403
300.4044
300.4054
300.4061
300.4064
300.4064
300.406
300.4053
300.4041
300.4026
300.4006
300.3982
300.3953
300.3919
300.3879
300.3834
300.3783
300.3726
300.3663
300.3603
300.3568
300.3628
300.3691
300.3747
300.3797
300.3841
300.3879
300.3912
300.394
300.3963
300.3982
300.3996
300.4007
300.4015
300.4018
300.4018
300.4014
300.4006
300.3994
300.3978
300.3958
300.3932
300.3902
300.3867
300.3826
300.378
300.3727
300.3668
300.3604
300.3543
300.3502
300.3563
300.3627
300.3684
300.3736
300.3781
300.3821
300.3855
300.3884
300.3909
300.3928
300.3943
300.3955
300.3963
300.3967
300.3966
300.3962
300.3954
300.3941
300.3925
300.3903
300.3877
300.3846
300.3809
300.3767
300.3719
300.3665
300.3605
300.354
300.3478
300.3439
300.3501
300.3565
300.3624
300.3677
300.3724
300.3764
300.3799
300.383
300.3855
300.3876
300.3892
300.3904
300.3912
300.3916
300.3916
300.3911
300.3903
300.389
300.3873
300.3851
300.3823
300.3791
300.3754
300.371
300.3661
300.3606
300.3545
300.3479
300.3416
)
;

boundaryField
{
    fmaxY
    {
        type            zeroGradient;
    }
    fminX
    {
        type            zeroGradient;
    }
    fmaxX
    {
        type            zeroGradient;
    }
    fminY
    {
        type            zeroGradient;
    }
    fminZ
    {
        type            externalWallHeatFluxTemperature;
        mode            coefficient;
        kappaMethod     solidThermo;
        kappa           none;
        h               constant 1000000;
        Ta              uniform 313;
        thicknessLayers List<scalar> 2(1 2);
        kappaLayers     List<scalar> 2(100 200);
        qr              none;
        refValue        uniform 313;
        refGradient     uniform 0;
        valueFraction   nonuniform List<scalar> 
900
(
0.04950261
0.04950261
0.04950261
0.04950261
0.04950261
0.04950261
0.04950261
0.04950261
0.04950261
0.04950261
0.04950261
0.04950261
0.04950261
0.04950261
0.04950261
0.04950261
0.04950261
0.04950261
0.04950261
0.04950261
0.04950261
0.04950261
0.04950261
0.04950261
0.04950261
0.04950261
0.04950261
0.04950261
0.04950261
0.04950261
0.04950261
0.04950261
0.04950261
0.04950261
0.04950261
0.04950261
0.04950261
0.04950261
0.04950261
0.04950261
0.04950261
0.04950261
0.04950261
0.04950261
0.04950261
0.04950261
0.04950261
0.04950261
0.04950261
0.04950261
0.04950261
0.04950261
0.04950261
0.04950261
0.04950261
0.04950261
0.04950261
0.04950261
0.04950261
0.04950261
0.04950261
0.04950261
0.04950261
0.04950261
0.04950261
0.04950261
0.04950261
0.04950261
0.04950261
0.04950261
0.04950261
0.04950261
0.04950261
0.04950261
0.04950261
0.04950261
0.04950261
0.04950261
0.04950261
0.04950261
0.04950261
0.04950261
0.04950261
0.04950261
0.04950261
0.04950261
0.04950261
0.04950261
0.04950261
0.04950261
0.04950261
0.04950261
0.04950261
0.04950261
0.04950261
0.04950261
0.04950261
0.04950261
0.04950261
0.04950261
0.04950261
0.04950261
0.04950261
0.04950261
0.04950261
0.04950261
0.04950261
0.04950261
0.04950261
0.04950261
0.04950261
0.04950261
0.04950261
0.04950261
0.04950261
0.04950261
0.04950261
0.04950261
0.04950261
0.04950261
0.04950261
0.04950261
0.04950261
0.04950261
0.04950261
0.04950261
0.04950261
0.04950261
0.04950261
0.04950261
0.04950261
0.04950261
0.04950261
0.04950261
0.04950261
0.04950261
0.04950261
0.04950261
0.04950261
0.04950261
0.04950261
0.04950261
0.04950261
0.04950261
0.04950261
0.04950261
0.04950261
0.04950261
0.04950261
0.04950261
0.04950261
0.04950261
0.04950261
0.04950261
0.04950261
0.04950261
0.04950261
0.04950261
0.04950261
0.04950261
0.04950261
0.04950261
0.04950261
0.04950261
0.04950261
0.04950261
0.04950261
0.04950261
0.04950261
0.04950261
0.04950261
0.04950261
0.04950261
0.04950261
0.04950261
0.04950261
0.04950261
0.04950261
0.04950261
0.04950261
0.04950261
0.04950261
0.04950261
0.04950261
0.04950261
0.04950261
0.04950261
0.04950261
0.04950261
0.04950261
0.04950261
0.04950261
0.04950261
0.04950261
0.04950261
0.04950261
0.04950261
0.04950261
0.04950261
0.04950261
0.04950261
0.04950261
0.04950261
0.04950261
0.04950261
0.04950261
0.04950261
0.04950261
0.04950261
0.04950261
0.04950261
0.04950261
0.04950261
0.04950261
0.04950261
0.04950261
0.04950261
0.04950261
0.04950261
0.04950261
0.04950261
0.04950261
0.04950261
0.04950261
0.04950261
0.04950261
0.04950261
0.04950261
0.04950261
0.04950261
0.04950261
0.04950261
0.04950261
0.04950261
0.04950261
0.04950261
0.04950261
0.04950261
0.04950261
0.04950261
0.04950261
0.04950261
0.04950261
0.04950261
0.04950261
0.04950261
0.04950261
0.04950261
0.04950261
0.04950261
0.04950261
0.04950261
0.04950261
0.04950261
0.04950261
0.04950261
0.04950261
0.04950261
0.04950261
0.04950261
0.04950261
0.04950261
0.04950261
0.04950261
0.04950261
0.04950261
0.04950261
0.04950261
0.04950261
0.04950261
0.04950261
0.04950261
0.04950261
0.04950261
0.04950261
0.04950261
0.04950261
0.04950261
0.04950261
0.04950261
0.04950261
0.04950261
0.04950261
0.04950261
0.04950261
0.04950261
0.04950261
0.04950261
0.04950261
0.04950261
0.04950261
0.04950261
0.04950261
0.04950261
0.04950261
0.04950261
0.04950261
0.04950261
0.04950261
0.04950261
0.04950261
0.04950261
0.04950261
0.04950261
0.04950261
0.04950261
0.04950261
0.04950261
0.04950261
0.04950261
0.04950261
0.04950261
0.04950261
0.04950261
0.04950261
0.04950261
0.04950261
0.04950261
0.04950261
0.04950261
0.04950261
0.04950261
0.04950261
0.04950261
0.04950261
0.04950261
0.04950261
0.04950261
0.04950261
0.04950261
0.04950261
0.04950261
0.04950261
0.04950261
0.04950261
0.04950261
0.04950261
0.04950261
0.04950261
0.04950261
0.04950261
0.04950261
0.04950261
0.04950261
0.04950261
0.04950261
0.04950261
0.04950261
0.04950261
0.04950261
0.04950261
0.04950261
0.04950261
0.04950261
0.04950261
0.04950261
0.04950261
0.04950261
0.04950261
0.04950261
0.04950261
0.04950261
0.04950261
0.04950261
0.04950261
0.04950261
0.04950261
0.04950261
0.04950261
0.04950261
0.04950261
0.04950261
0.04950261
0.04950261
0.04950261
0.04950261
0.04950261
0.04950261
0.04950261
0.04950261
0.04950261
0.04950261
0.04950261
0.04950261
0.04950261
0.04950261
0.04950261
0.04950261
0.04950261
0.04950261
0.04950261