/*--------------------------------*- C++ -*----------------------------------*\
| =========                 |                                                 |
| \\      /  F ield         | OpenFOAM: The Open Source CFD Toolbox           |
|  \\    /   O peration     | Version:  2506                                  |
|   \\  /    A nd           | Website:  www.openfoam.com                      |
|    \\/     M anipulation  |                                                 |
\*---------------------------------------------------------------------------*/
FoamFile
{
    version     2.0;
    format      ascii;
    arch        "LSB;label=32;scalar=64";
    class       surfaceScalarField;
    location    "3000/air";
    object      phi;
}
// * * * * * * * * * * * * * * * * * * * * * * * * * * * * * * * * * * * * * //

dimensions      [1 0 -1 0 0 0 0];

oriented        oriented;

internalField   nonuniform List<scalar> 
98844
(
-0.00684279
-0.007067972
-0.005771724
-0.005109445
-0.008549532
-0.00527314
-0.003992415
-0.00971247
-0.004858205
-0.003208675
-0.01053706
-0.004584442
-0.002612332
-0.01110642
-0.00439785
-0.002131568
-0.01149496
-0.004266354
-0.001728218
-0.01175579
-0.004171938
-0.001380687
-0.01192564
-0.004103057
-0.001076056
-0.01203076
-0.004052267
-0.0008059781
-0.01209106
-0.004014769
-0.0005643502
-0.01212196
-0.003987457
-0.0003459781
-0.0121356
-0.003968343
-0.0001459562
-0.01214175
-0.003956298
4.093582e-05
-0.0121478
-0.003950647
0.0002221026
-0.01215921
-0.003951203
0.0004048078
-0.01217813
-0.003958033
0.0005948722
-0.01220385
-0.003971252
0.0007985467
-0.01223373
-0.003991095
0.001021871
-0.01226274
-0.004017935
0.001270631
-0.01228331
-0.004052362
0.001550685
-0.01228528
-0.004095426
0.001868733
-0.01225609
-0.00414902
0.002233679
-0.01217977
-0.004216146
0.002658956
-0.01203574
-0.004301453
0.003166732
-0.01179683
-0.004412306
0.003795978
-0.01142502
-0.004560257
0.004620147
-0.01086513
-0.004763669
0.005789251
-0.01003951
-0.005055699
0.007597102
-0.008860042
-0.005493256
-0.007342172
-0.00601602
-0.008326248
-0.005340666
-0.005271515
-0.00605271
-0.006279293
-0.004543774
-0.004584099
-0.007144441
-0.004036637
-0.003570317
-0.007820748
-0.003730094
-0.002824355
-0.008318715
-0.003533669
-0.002245169
-0.008671791
-0.003402351
-0.001776581
-0.008912655
-0.003311718
-0.001386547
-0.009068348
-0.003247326
-0.001056013
-0.009160777
-0.003200516
-0.000772853
-0.00920814
-0.00316608
-0.0005283877
-0.00922563
-0.003140789
-0.0003153289
-0.009225943
-0.003122717
-0.000126553
-0.009219715
-0.003110806
4.556239e-05
-0.00921524
-0.003104675
0.0002094635
-0.009218407
-0.003104703
0.0003740117
-0.0092319
-0.003110779
0.0005480061
-0.009255355
-0.003122486
0.0007400074
-0.009285698
-0.00314003
0.0009581569
-0.009317184
-0.003163703
0.001210253
-0.009341373
-0.003194028
0.001504307
-0.009347339
-0.003231994
0.001849718
-0.009322012
-0.003279488
0.00225934
-0.00924974
-0.003339649
0.002752975
-0.009111737
-0.003417638
0.003363581
-0.008885347
-0.003522088
0.004148725
-0.008542503
-0.003667662
0.005212063
-0.008049102
-0.003879365
0.006746198
-0.007369729
-0.004203917
0.009113902
-0.006491632
-0.004736113
-0.005529749
-0.005495816
-0.009487266
-0.004226349
-0.004855184
-0.006919547
-0.004811681
-0.004035329
-0.005192298
-0.005415761
-0.003455928
-0.003976847
-0.005927059
-0.003109137
-0.003080915
-0.006323036
-0.00289161
-0.002392341
-0.006610592
-0.002749771
-0.001845172
-0.006805777
-0.002654046
-0.001400381
-0.006926146
-0.00258699
-0.001034208
-0.006988538
-0.00253841
-0.0007312783
-0.007008762
-0.002502307
-0.0004804308
-0.007001296
-0.002475179
-0.0002721163
-0.006979175
-0.00245508
-9.686727e-05
-0.006953871
-0.002441091
5.558581e-05
-0.006934606
-0.002433085
0.0001967418
-0.006927998
-0.002431563
0.0003385849
-0.006937281
-0.00243646
0.0004930202
-0.00696235
-0.002447439
0.0006716315
-0.006999714
-0.002464593
0.000885308
-0.007042818
-0.00248804
0.001144336
-0.007082287
-0.002518111
0.001459102
-0.007106419
-0.002555685
0.001841631
-0.007101873
-0.002602665
0.002308173
-0.007053762
-0.002662519
0.002883429
-0.006945786
-0.002741205
0.003607584
-0.006760494
-0.002849006
0.004548329
-0.006479585
-0.003003662
0.005820896
-0.006086079
-0.003235588
0.007623583
-0.00557204
-0.003600374
0.01029756
-0.004959231
-0.004206375
-0.004360008
-0.005060822
-0.01030717
-0.003442978
-0.004578961
-0.007594938
-0.003797131
-0.003726779
-0.005705333
-0.0041979
-0.003107464
-0.004340642
-0.004558094
-0.002733654
-0.003319457
-0.004845746
-0.002498473
-0.002530714
-0.005054178
-0.002345155
-0.001906322
-0.005188568
-0.002241598
-0.001404716
-0.005259156
-0.002168595
-0.001000001
-0.005278414
-0.002114837
-0.0006750521
-0.005259923
-0.002073786
-0.000417049
-0.005217528
-0.002041769
-0.0002145367
-0.005164701
-0.002016985
-5.565738e-05
-0.005113951
-0.001998797
7.291911e-05
-0.005075614
-0.001987566
0.0001864298
-0.005057551
-0.001983957
0.0003006444
-0.005063467
-0.001988027
0.0004313463
-0.005093454
-0.001999595
0.0005937331
-0.005143544
-0.002018555
0.0008018245
-0.005206198
-0.00204471
0.001068452
-0.005270876
-0.002078037
0.001406039
-0.00532488
-0.002119124
0.001828391
-0.005354471
-0.002169753
0.002353632
-0.005345446
-0.002233555
0.003008715
-0.005283785
-0.002317082
0.003836492
-0.005156525
-0.002431744
0.004906937
-0.004952872
-0.002597157
0.006334262
-0.004667077
-0.002846325
0.008305787
-0.004305329
-0.003238234
0.01113102
-0.003899543
-0.003884925
-0.003537934
-0.004772503
-0.01086998
-0.00284576
-0.004388931
-0.008090068
-0.003049427
-0.003527612
-0.006101177
-0.003299063
-0.002887726
-0.004630124
-0.003532686
-0.002496459
-0.003509437
-0.003719432
-0.002246999
-0.00263434
-0.003847225
-0.002082047
-0.001939112
-0.003915149
-0.001968645
-0.001383004
-0.003928618
-0.001886644
-0.0009403564
-0.003896935
-0.001824125
-0.0005939326
-0.003832081
-0.001774264
-0.0003303251
-0.00374764
-0.001733494
-0.0001367792
-0.003657841
-0.001700404
7.610647e-07
-0.003576554
-0.001674935
9.957358e-05
-0.003516046
-0.001658378
0.0001785789
-0.003484859
-0.001651695
0.0002581513
-0.003487923
-0.001655114
0.0003588137
-0.003525413
-0.001668702
0.000500007
-0.003592716
-0.001692019
0.0006991944
-0.003681058
-0.001724325
0.0009716655
-0.0037784
-0.001764945
0.00133129
-0.003870633
-0.00181387
0.001792574
-0.003943279
-0.001872475
0.002373841
-0.003982412
-0.001944299
0.003101874
-0.003975651
-0.002036166
0.004018753
-0.003913258
-0.002160144
0.005192077
-0.0037894
-0.002336795
0.006729691
-0.003604627
-0.002600062
0.008804658
-0.003370827
-0.003009467
0.0117013
-0.00311909
-0.003677089
-0.002912237
-0.004573871
-0.01125051
-0.002363586
-0.004253199
-0.008438871
-0.002468132
-0.003392929
-0.00638721
-0.00260753
-0.002743192
-0.004839067
-0.002740053
-0.002340775
-0.003639217
-0.002839464
-0.002079816
-0.002690407
-0.002892517
-0.001903516
-0.001931426
-0.00289536
-0.001778769
-0.001324455
-0.002850537
-0.00168505
-0.000845911
-0.002765335
-0.001610141
-0.0004799394
-0.002650802
-0.001547248
-0.0002136687
-0.002520713
-0.001493196
-3.381442e-05
-0.002390392
-0.001447301
7.638902e-05
-0.002275765
-0.001410991
0.0001372888
-0.002190618
-0.001386326
0.0001727816
-0.00214547
-0.001374879
0.0002087334
-0.002146119
-0.001377754
0.000271178
-0.00219286
-0.001394995
0.0003844818
-0.002280336
-0.001425682
0.0005698905
-0.002398276
-0.001468189
0.0008450196
-0.002532789
-0.001520738
0.001224483
-0.002667819
-0.001582276
0.001722362
-0.002787788
-0.001653368
0.002355663
-0.002878583
-0.001737128
0.003149121
-0.002928755
-0.001840352
0.004141864
-0.002930613
-0.001975386
0.005396917
-0.002881249
-0.002163203
0.007014429
-0.002784264
-0.002437874
0.009154903
-0.002652844
-0.002858455
0.01208537
-0.002513534
-0.003536025
-0.002408634
-0.004431548
-0.01150211
-0.001958737
-0.004153932
-0.008674328
-0.001997456
-0.003298458
-0.006579824
-0.002057628
-0.002644403
-0.004973013
-0.002112273
-0.002234589
-0.003708262
-0.002140191
-0.001964022
-0.002695466
-0.002128827
-0.001776485
-0.001878675
-0.002073162
-0.001638987
-0.00122423
-0.001974166
-0.001530813
-0.0007119709
-0.001837924
-0.001439668
-0.0003287284
-0.001675056
-0.001358987
-6.339732e-05
-0.001499798
-0.001286243
9.76586e-05
-0.001328981
-0.001222464
0.0001730106
-0.001180464
-0.001170651
0.0001868706
-0.001070426
-0.001134049
0.0001686408
-0.001011291
-0.001115947
0.0001506489
-0.001009865
-0.00111826
0.0001654599
-0.001066574
-0.001141095
0.0002431544
-0.001175224
-0.001182804
0.0004091156
-0.001323852
-0.001240383
0.0006832663
-0.001496623
-0.001310315
0.001080055
-0.001674683
-0.001389923
0.001612075
-0.001841365
-0.001478441
0.002293721
-0.001982027
-0.0015782
0.0031463
-0.00208562
-0.001695713
0.004204734
-0.002145645
-0.0018434
0.005526675
-0.002160791
-0.002042397
0.007204944
-0.002135859
-0.002326673
0.00939015
-0.002083393
-0.002754655
0.01233806
-0.002024876
-0.003436564
-0.001987634
-0.004326956
-0.01166164
-0.001609849
-0.004079744
-0.008823666
-0.001605546
-0.003229881
-0.006696808
-0.001610451
-0.002574033
-0.005042471
-0.001607816
-0.002158793
-0.003722289
-0.001580815
-0.001879556
-0.002652403
-0.001518208
-0.001680502
-0.001782215
-0.001414697
-0.001528651
-0.001082873
-0.001270395
-0.001403111
-0.0005386087
-0.001090665
-0.001291521
-0.0001402445
-0.0008858058
-0.001187612
0.0001210491
-0.0006708609
-0.001090229
0.0002581411
-0.0004636664
-0.001002405
0.0002910853
-0.0002843292
-0.0009290768
0.0002483531
-0.0001515837
-0.0008761083
0.0001657574
-7.981792e-05
-0.0008488755
8.306117e-05
-7.665424e-05
-0.0008505126
4.058546e-05
-0.000142884
-0.0008812126
7.492073e-05
-0.0002712624
-0.0009382951
0.0002156024
-0.0004476978
-0.001016834
0.000485557
-0.0006559744
-0.001110601
0.0008974085
-0.0008719464
-0.001214586
0.001461618
-0.001079533
-0.00132604
0.0021888
-0.001263032
-0.001446176
0.00309583
-0.00141158
-0.001581069
0.004212743
-0.001519402
-0.001743155
0.005591722
-0.00158603
-0.001953739
0.007319155
-0.001616546
-0.002246743
0.009538134
-0.001622171
-0.002680201
0.0124971
-0.001619946
-0.003363891
-0.001626791
-0.004248353
-0.01175539
-0.001304105
-0.004023297
-0.008908895
-0.001273397
-0.003178644
-0.006755143
-0.001242221
-0.00252198
-0.005060097
-0.001200695
-0.002102165
-0.003690825
-0.001135504
-0.001814581
-0.002568773
-0.001036824
-0.001603435
-0.001648441
-0.0008994676
-0.001435559
-0.0009060712
-0.0007230663
-0.001289696
-0.0003309698
-0.0005124627
-0.001153301
8.049587e-05
-0.0002768177
-0.001020452
0.0003352246
-3.406759e-05
-0.0008915199
0.0004444158
0.0001993759
-0.0007722314
0.0004290036
0.0004009927
-0.0006699077
0.0003211802
0.0005507897
-0.0005945479
0.0001637174
0.0006323457
-0.0005546987
5.586056e-06
0.0006368778
-0.0005553987
-0.0001030576
0.0005631785
-0.000597417
-0.0001178596
0.0004196394
-0.0006760981
-4.890865e-06
0.0002219906
-0.0007826553
0.0002563626
-9.754881e-06
-0.0009074713
0.0006812371
-0.0002536348
-0.001043184
0.001276259
-0.0004910391
-0.001183513
0.002046935
-0.0007051701
-0.001328537
0.003004991
-0.0008857066
-0.001483927
0.00417526
-0.001027438
-0.001662232
0.005604696
-0.001130382
-0.001885082
0.007374221
-0.001199486
-0.002186584
0.009621273
-0.001244511
-0.00262471
0.01258948
-0.001278895
-0.003309257
-0.001312559
-0.004188245
-0.01180327
-0.001033179
-0.00397982
-0.008948245
-0.00098883
-0.003139586
-0.006770707
-0.0009374513
-0.002482306
-0.005039569
-0.0008736043
-0.002058226
-0.00362598
-0.0007867595
-0.001762332
-0.002455779
-0.0006684681
-0.001538555
-0.001488171
-0.0005138417
-0.001353231
-0.000704523
-0.0003222071
-0.001184505
-9.94899e-05
-9.832062e-05
-0.001019173
0.0003258752
0.0001498272
-0.0008520077
0.0005717124
0.0004052473
-0.0006851499
0.0006485817
0.0006494451
-0.0005269363
0.0005789909
0.0008601948
-0.0003896093
0.0004001354
0.001017012
-0.0002873649
0.000162104
0.00110304
-0.000232661
-7.696166e-05
0.001108412
-0.0002324665
-0.0002575592
0.001031571
-0.0002877934
-0.0003279377
0.0008822292
-0.0003922094
-0.0002489906
0.0006763805
-0.0005333353
3.780033e-06
0.0004341595
-0.0006966832
0.0004413694
0.0001789252
-0.0008701476
0.001066359
-7.103986e-05
-0.001044987
0.001878791
-0.0002984867
-0.001219113
0.002884916
-0.0004941211
-0.001397708
0.004104392
-0.0006531311
-0.001593782
0.005579371
-0.0007758101
-0.001829549
0.007386234
-0.0008667565
-0.002139591
0.009658185
-0.0009342951
-0.002582165
0.01263567
-0.0009889261
-0.00326745
-0.001036001
-0.004141926
-0.01182053
-0.000790907
-0.003946048
-0.008956881
-0.0007429934
-0.003109486
-0.006757984
-0.0006848116
-0.002451535
-0.004994754
-0.000613498
-0.002023334
-0.003541375
-0.0005208668
-0.00171927
-0.002327251
-0.0003998719
-0.001482719
-0.00131565
-0.0002461522
-0.001279288
-0.0004927051
-5.901024e-05
-0.001086139
0.0001399386
0.0001585795
-0.0008895416
0.0005768021
0.0003973168
-0.000684351
0.0008141001
0.0006434888
-0.0004755373
0.000858847
0.0008785391
-0.0002738387
0.0007346492
0.001082489
-9.809468e-05
0.0004832981
0.001233148
3.521709e-05
0.0001609808
0.001314628
0.0001107312
-0.0001628153
0.001320167
0.0001120433
-0.0004171203
0.001248123
3.775547e-05
-0.0005435515
0.001105201
-9.653912e-05
-0.0004983519
0.0009064252
-0.0002752426
-0.0002556447
0.0006736859
-0.0004822319
0.0001930446
0.000428329
-0.0006980914
0.0008468066
0.0001861036
-0.0009109036
0.001698824
-3.396332e-05
-0.001116539
0.00274954
-0.0002247736
-0.001320062
0.00401389
-0.000382791
-0.001534688
0.00552978
-0.0005080951
-0.001783603
0.007369925
-0.0006047611
-0.002102138
0.009664413
-0.0006796588
-0.002549123
0.01265158
-0.000740725
-0.003235369
-0.000790362
-0.004106469
-0.01181936
-0.0005709005
-0.003919099
-0.008947509
-0.0005284796
-0.003086365
-0.006729983
-0.0004746036
-0.002427732
-0.004939085
-0.0004087054
-0.001995688
-0.003451233
-0.0003247403
-0.001683977
-0.002198608
-0.0002171971
-0.001435298
-0.001147846
-8.258412e-05
-0.001214328
-0.0002896811
8.017791e-05
-0.0009973506
0.0003682545
0.0002702004
-0.0007695543
0.0008160877
0.0004757551
-0.0005262694
0.001044695
0.0006887415
-0.0002738578
0.001059998
0.000893617
-3.037936e-05
0.0008818169
0.001067909
0.0001927635
0.0005608124
0.001198211
0.0003559439
0.0001603541
0.001269827
0.0004452607
-0.0002420154
0.00127486
0.0004476779
-0.0005671905
0.00121174
0.00036156
-0.000749396
0.001088354
0.0001990543
-0.0007352741
0.0009187752
-2.647008e-05
-0.0005021608
0.0007160284
-0.000275454
-4.181802e-05
0.000502934
-0.000534946
0.0006372645
0.0002939113
-0.0007868884
0.001524065
0.000103131
-0.001023893
0.00261445
-6.338721e-05
-0.00125177
0.003918177
-0.0002020402
-0.001484476
0.005469567
-0.0003135198
-0.001745964
0.007338515
-0.0004011576
-0.00207255
0.009652984
-0.0004702857
-0.00252384
0.01264995
-0.0005263469
-0.003211344
-0.0005696183
-0.004080319
-0.01181024
-0.0003701478
-0.003901746
-0.008930854
-0.0003382036
-0.003069655
-0.00669812
-0.0002972544
-0.002410082
-0.004884959
-0.0002471761
-0.001974688
-0.003369315
-0.0001839439
-0.001656438
-0.002085509
-0.0001036957
-0.001397305
-0.001002852
-4.237733e-06
-0.001161001
-0.0001149279
0.0001156288
-0.000923373
0.0005647187
0.0002576443
-0.0006670883
0.001021197
0.0004084532
-0.0003891737
0.001243419
0.0005658616
-9.934034e-05
0.001230035
0.0007155777
0.0001914255
0.0010085
0.0008452547
0.0004441918
0.0006280407
0.0009417841
0.0006368878
0.0001598218
0.0009949507
0.0007430977
-0.0003106608
0.0009987771
0.0007465678
-0.0006962282
0.0009520115
0.0006452974
-0.0009230507
0.0008606382
0.0004545402
-0.0009390601
0.0007343888
0.0002003974
-0.0007132545
0.000586367
-9.614233e-05
-0.0002450379
0.0004284209
-0.0003937017
0.0004556232
0.0002742967
-0.0006810449
0.001372614
0.0001329616
-0.0009468197
0.002495552
9.544149e-06
-0.001195868
0.003831311
-9.33398e-05
-0.001444458
0.005411371
-0.0001766838
-0.001716894
0.007303563
-0.0002427913
-0.002050556
0.009634758
-0.0002951604
-0.002506319
0.01264118
-0.0003373739
-0.003195396
-0.0003686604
-0.004063765
-0.01179933
-0.0001808899
-0.003887942
-0.008914871
-0.0001644888
-0.003058172
-0.006671479
-0.000142519
-0.002398126
-0.004842669
-0.0001156551
-0.001960328
-0.003307417
-8.18884e-05
-0.001637306
-0.002001429
-3.918315e-05
-0.001370498
-0.0008965605
1.388323e-05
-0.001122987
1.06585e-05
7.783677e-05
-0.0008694246
0.000708547
0.0001515216
-0.0005917634
0.001171894
0.0002326916
-0.0002875837
0.001388329
0.0003171372
3.229221e-05
0.001355417
0.0003959581
0.0003525333
0.001101426
0.0004648111
0.0006344367
0.000677481
0.0005162525
0.0008494787
0.0001592975
0.0005445981
0.0009685381
-0.0003613857
0.0005466097
0.0009728526
-0.0007911041
0.0005215904
0.0008601413
-0.001051255
0.0004727855
0.0006480057
-0.001087642
0.0004056196
0.0003651573
-0.0008685413
0.0003275456
3.9723e-05
-0.0003939331
0.0002426727
-0.0002888582
0.0003223861
0.0001607966
-0.0006028173
0.001260857
8.535656e-05
-0.0008908645
0.00240703
1.965096e-05
-0.001156278
0.003765601
-3.519023e-05
-0.001416719
0.005365935
-7.965102e-05
-0.001697365
0.007274753
-0.0001150154
-0.002036591
0.009618025
-0.0001430705
-0.002495361
0.01263186
-0.0001655395
-0.003185666
-0.0001814587
-0.00405422
-0.01179219
8.019353e-07
-0.003881499
-0.008905264
7.025067e-07
-0.003052118
-0.006656489
5.009362e-07
-0.002391792
-0.004819623
2.526242e-07
-0.001952771
-0.003274204
-1.224147e-08
-0.001627293
-0.001956595
-2.814729e-07
-0.001356509
-0.0008389738
-5.527057e-07
-0.001103183
8.076655e-05
-8.155536e-07
-0.0008410856
0.0007846639
-1.036509e-06
-0.000551337
0.001251834
-1.210831e-06
-0.0002332651
0.001463906
-1.365892e-06
0.0001064335
0.001421815
-1.515029e-06
0.0004395657
0.00115066
-1.662034e-06
0.0007376308
0.0007036312
-1.810635e-06
0.000965094
0.0001588671
-1.970451e-06
0.001091335
-0.000388514
-2.140388e-06
0.001096133
-0.0008416589
-2.311629e-06
0.0009770488
-0.001119412
-2.485175e-06
0.0007530262
-0.00116538
-2.649562e-06
0.0004542386
-0.0009511942
-2.795028e-06
0.0001161569
-0.0004728669
-2.916107e-06
-0.0002327367
0.0002518418
-3.02202e-06
-0.0005608882
0.001201483
-3.130937e-06
-0.000861152
0.002359928
-3.251256e-06
-0.001135541
0.003730305
-3.34798e-06
-0.001402217
0.005341182
-3.406041e-06
-0.00168712
0.007258651
-3.374923e-06
-0.002029107
0.009608177
-3.175825e-06
-0.002489419
0.01262582
-2.723356e-06
-0.003180456
-1.990379e-06
-0.004049577
-0.01179229
0.0001824414
-0.003881343
-0.008905424
0.0001658958
-0.003052053
-0.006656686
0.0001435395
-0.002391775
-0.004819837
0.000116187
-0.001952781
-0.003274424
8.189922e-05
-0.001627322
-0.001956816
3.866411e-05
-0.001356551
-0.0008391914
-1.492977e-05
-0.001103245
8.056827e-05
-7.941154e-05
-0.0008411612
0.0007844968
-0.0001535432
-0.0005514194
0.001251697
-0.0002350685
-0.0002333401
0.00146379
-0.0003198385
0.0001063825
0.001421715
-0.000398984
0.0004395462
0.001150566
-0.0004681586
0.0007376479
0.0007035272
-0.0005199192
0.0009651491
0.0001587384
-0.0005485977
0.001091418
-0.000388671
-0.0005509488
0.00109622
-0.0008418323
-0.0005262567
0.0009771083
-0.001119584
-0.0004777718
0.0007530406
-0.001165538
-0.0004109016
0.000454208
-0.0009513355
-0.0003330857
0.0001160901
-0.0004730035
-0.0002484229
-0.0002328233
0.0002516933
-0.0001667338
-0.0005609831
0.001201317
-9.148967e-05
-0.0008612634
0.002359783
-2.602579e-05
-0.001135689
0.003730201
2.862026e-05
-0.001402384
0.005341171
7.295692e-05
-0.001687331
0.00725881
0.0001083616
-0.002029374
0.0096086
0.0001367998
-0.002489763
0.01262664
0.0001601754
-0.003180935
0.0001776474
-0.00405032
-0.01179947
0.0003716005
-0.00388731
-0.008915319
0.0003397
-0.003057955
-0.006672055
0.000298346
-0.002398068
-0.004843301
0.0002477919
-0.001960357
-0.003308071
0.0001840599
-0.001637388
-0.002002076
0.0001032973
-0.001370625
-0.0008972145
3.376961e-06
-0.001123166
1.007148e-05
-0.0001170519
-0.0008696432
0.0007080481
-0.0002595171
-0.0005920003
0.001171483
-0.0004107021
-0.0002877985
0.001387967
-0.0005684712
3.215015e-05
0.001355102
-0.0007185832
0.0003524667
0.001101135
-0.0008486484
0.000634459
0.0006771688
-0.0009455491
0.0008495982
0.0001589205
-0.0009990782
0.0009687307
-0.0003618383
-0.00100324
0.0009730515
-0.000791599
-0.0009567604
0.0008602663
-0.001051743
-0.0008656383
0.0006480123
-0.001088091
-0.0007396011
0.0003650499
-0.0008689453
-0.0005917464
3.951639e-05
-0.0003943281
-0.0004339322
-0.0002891059
0.0003219495
-0.0002799184
-0.0006030911
0.001260359
-0.0001386926
-0.0008912049
0.002406592
-1.548587e-05
-0.001156771
0.003765294
8.72779e-05
-0.001417358
0.00536589
0.0001705232
-0.001698159
0.007275223
0.0002366334
-0.002037603
0.009619314
0.0002893344
-0.002496623
0.01263447
0.0003323593
-0.003187335
0.0003652719
-0.004056753
-0.01181036
0.0005734371
-0.00389962
-0.008931588
0.0005301547
-0.003069224
-0.006699066
0.0004758173
-0.002409992
-0.004885995
0.0004094613
-0.001974738
-0.003370392
0.0003250289
-0.00165657
-0.002086602
0.0002170131
-0.001397503
-0.00100389
8.192789e-05
-0.00116126
-0.0001158931
-8.133719e-05
-0.0009237093
0.0005638756
-0.0002718238
-0.0006674597
0.001020483
-0.0004778056
-0.0003895014
0.001242746
-0.0006912043
-9.952782e-05
0.001229439
-0.0008965511
0.0001912769
0.00100796
-0.001071288
0.0004441205
0.0006274948
-0.001202008
0.0006369263
0.0001592065
-0.001274011
0.0007432228
-0.0003113603
-0.001279366
0.0007466952
-0.0006969652
-0.001216482
0.0006453281
-0.0009237592
-0.001093267
0.0004544246
-0.0009396982
-0.0009238062
0.0002001463
-0.0007138269
-0.0007211167
-9.649888e-05
-0.0002456002
-0.0005080602
-0.0003940967
0.0004549875
-0.0002990251
-0.0006814791
0.001371891
-0.0001081924
-0.000947402
0.002494818
5.838663e-05
-0.001196798
0.003830825
0.0001971296
-0.001445856
0.005411244
0.0003087506
-0.001718644
0.007304288
0.0003965997
-0.002053009
0.009636839
0.0004660299
-0.002509245
0.01264565
0.0005224923
-0.003198937
0.0005662068
-0.004068808
-0.0118204
0.0007929445
-0.00391923
-0.008948708
0.000744761
-0.003086294
-0.006731321
0.0006861635
-0.002427731
-0.004940508
0.0006144301
-0.001995779
-0.003452701
0.0005213752
-0.00168415
-0.002200087
0.000399952
-0.00143555
-0.001149287
0.0002457921
-0.001214662
-0.0002910392
5.818748e-05
-0.0009977703
0.0003670505
-0.0001598838
-0.0007700274
0.0008150424
-0.0003991229
-0.0005266724
0.001043645
-0.0006458128
-0.0002739921
0.001059068
-0.000881304
-3.066796e-05
0.0008809885
-0.0010857
0.0001924937
0.0005600179
-0.001236794
0.0003557587
0.0001595232
-0.001318659
0.0004451457
-0.0002428977
-0.001324503
0.0004475601
-0.0005680708
-0.001252661
0.0003613547
-0.0007502105
-0.001109842
0.0001987173
-0.0007359758
-0.000911094
-2.694498e-05
-0.0005027846
-0.0006783346
-0.0002759713
-4.242518e-05
-0.0004329503
-0.0005354674
0.0006366159
-0.0001906339
-0.0007874303
0.001523324
2.965347e-05
-0.001024552
0.00261377
0.0002207098
-0.001252767
0.00391779
0.0003790794
-0.001485968
0.005469617
0.0005047447
-0.001747819
0.007339528
0.0006018221
-0.002075131
0.009655495
0.0006769896
-0.002526925
0.01265501
0.0007380539
-0.003215079
0.0007869669
-0.004085575
-0.01182197
0.00103522
-0.003945993
-0.008958443
0.0009906669
-0.003109429
-0.00675967
0.0009389579
-0.002451565
-0.004996528
0.0008747442
-0.002023454
-0.0035432
0.0007875236
-0.001719473
-0.002329095
0.0006688526
-0.001483004
-0.001317474
0.0005138362
-0.001279662
-0.000494462
0.0003217853
-0.001086608
0.0001383057
9.744906e-05
-0.0008900983
0.0005753198
-0.0001511915
-0.0006849432
0.000812702
-0.0004071141
-0.0004760788
0.0008575927
-0.0006517655
-0.0002744269
0.0007335258
-0.0008629693
-9.866194e-05
0.0004822579
-0.001020221
3.469685e-05
0.0001599632
-0.001106631
0.000110269
-0.0001638167
-0.001112296
0.0001115755
-0.0004180475
-0.001035642
3.72139e-05
-0.0005443557
-0.0008863909
-9.714101e-05
-0.000499005
-0.0006805468
-0.0002758959
-0.0002562487
-0.0004381941
-0.0004828947
0.0001925496
-0.0001830443
-0.0006987022
0.0008463058
6.708727e-05
-0.0009114753
0.001698353
0.0002947447
-0.001117136
0.002749195
0.0004906774
-0.001320809
0.004013868
0.0006500477
-0.001535639
0.005530264
0.0007730912
-0.00178474
0.007371258
0.0008643869
-0.002103558
0.009666996
0.0009321311
-0.002550877
0.01265601
0.0009866784
-0.003237634
0.001033192
-0.004109676
-0.01180489
0.00130625
-0.003979664
-0.008950081
0.001275372
-0.003139516
-0.006772694
0.001243917
-0.002482344
-0.005041656
0.00120207
-0.002058362
-0.003628124
0.001136548
-0.001762554
-0.002457946
0.001037534
-0.001538856
-0.00149033
0.0008998372
-0.001353615
-0.0007066353
0.0007230756
-0.001184983
-0.0001015056
0.0005120764
-0.001019755
0.0003239913
0.0002760008
-0.0008526867
0.0005699418
3.282667e-05
-0.0006858889
0.000646987
-0.000201096
-0.0005277126
0.00057757
-0.0004031479
-0.0003904021
0.0003988526
-0.0005533614
-0.0002881395
0.000160922
-0.0006352801
-0.0002334185
-7.804286e-05
-0.0006401
-0.0002332292
-0.0002584932
-0.0005666129
-0.0002885768
-0.0003286745
-0.0004231971
-0.0003930105
-0.0002494322
-0.000225655
-0.0005341321
3.316997e-06
6.538311e-06
-0.0006974797
0.0004410133
0.000250056
-0.0008707945
0.001066078
0.0004876059
-0.001045581
0.001878609
0.000701914
-0.001219699
0.002884928
0.0008826938
-0.001398334
0.004104745
0.001024714
-0.001594481
0.005580228
0.001127954
-0.001830344
0.007387824
0.001197326
-0.002140534
0.009660774
0.001242515
-0.002583331
0.01263958
0.001276852
-0.00326898
0.001310155
-0.004144042
-0.0117572
0.001612118
-0.004023078
-0.00891097
0.001607686
-0.003178545
-0.006757398
0.001612356
-0.00252201
-0.005062463
0.001609441
-0.002102304
-0.003693251
0.001582148
-0.001814809
-0.002571224
0.001519246
-0.001603737
-0.001650889
0.001415437
-0.001435932
-0.0009084873
0.001270825
-0.001290149
-0.0003333212
0.001090763
-0.00115385
7.824399e-05
0.0008855432
-0.001021105
0.0003331372
0.000670207
-0.0008922713
0.0004425175
0.0004625945
-0.0007730687
0.0004273092
0.0002828582
-0.0006707957
0.0003196783
0.0001497325
-0.0005954609
0.0001623884
7.763437e-05
-0.0005556223
4.430413e-06
7.4184e-05
-0.0005563238
-0.0001040338
0.0001401851
-0.0005983316
-0.0001186383
0.0002683959
-0.0006769865
-5.539585e-06
0.0004447319
-0.0007834835
0.0002560906
0.0006530788
-0.0009081685
0.0006810251
0.0008689758
-0.001043852
0.001276166
0.001076606
-0.001184139
0.002047005
0.001260218
-0.001329142
0.003005304
0.001408935
-0.001484538
0.004175928
0.001516964
-0.001662873
0.005605852
0.001583808
-0.001885776
0.007376029
0.001614517
-0.002187367
0.009623913
0.001620265
-0.002625633
0.01259314
0.001618032
-0.003310409
0.001624636
-0.004189803
-0.01166361
0.001961133
-0.004079458
-0.008825952
0.001999765
-0.00322974
-0.0066993
0.002059746
-0.00257404
-0.005045086
0.00211415
-0.002158921
-0.003724965
0.002141808
-0.001879778
-0.002655102
0.002130179
-0.001680794
-0.001784908
0.002074248
-0.001529002
-0.001085536
0.00197498
-0.001403524
-0.0005412128
0.001838452
-0.001292009
-0.0001427495
0.001675277
-0.001188194
0.0001186835
0.001499689
-0.001090913
0.0002559499
0.001328516
-0.001003185
0.0002891059
0.001179645
-0.0009299405
0.0002466021
0.001069266
-0.0008770276
0.0001642523
0.001009811
-0.0008498248
8.180814e-05
0.0010081
-0.0008514693
3.95795e-05
0.001064568
-0.0008821518
7.414025e-05
0.001173027
-0.0009391896
0.000215017
0.00132152
-0.001017663
0.0004852256
0.001494224
-0.001111352
0.0008972575
0.001672232
-0.001215286
0.001461653
0.001838917
-0.001326704
0.002189058
0.001979638
-0.001446822
0.003096371
0.002083338
-0.001581715
0.004213652
0.002143501
-0.001743816
0.005593107
0.002158789
-0.001954433
0.007321143
0.002133973
-0.002247491
0.009540858
0.002081564
-0.002681012
0.01250065
0.002023023
-0.003364777
0.001985738
-0.004249577
-0.01150422
0.002366102
-0.004153563
-0.008676795
0.002470602
-0.003298255
-0.006582528
0.002609848
-0.002644367
-0.004975853
0.002742165
-0.002234688
-0.003711164
0.002841344
-0.001964222
-0.002698384
0.002894157
-0.001776756
-0.00188158
0.002896758
-0.001639311
-0.001227101
0.002851687
-0.001531184
-0.0007147826
0.00276623
-0.001440095
-0.0003314485
0.002651428
-0.001359483
-6.598159e-05
0.002521053
-0.001286828
9.52437e-05
0.002390431
-0.001223138
0.0001708111
0.002275487
-0.001171408
0.0001849136
0.002190041
-0.001134875
0.0001669521
0.002144595
-0.00111682
0.0001492416
0.002144965
-0.001119152
0.000164332
0.002191459
-0.00114198
0.0002422933
0.002278727
-0.001183659
0.0004085061
0.002396505
-0.001241196
0.0006829077
0.002530909
-0.001311084
0.001079935
0.002665867
-0.00139066
0.001612199
0.002785813
-0.001479159
0.002294115
0.002876632
-0.001578907
0.003147007
0.002926867
-0.001696419
0.004205816
0.00292881
-0.001844115
0.005528211
0.002879533
-0.002043138
0.007207038
0.002782611
-0.002327464
0.009392924
0.002651211
-0.002755531
0.01234167
0.002511875
-0.003437593
0.002406955
-0.004328283
-0.01125271
0.002848373
-0.004252722
-0.008441495
0.003052028
-0.003392641
-0.006390103
0.003301548
-0.002743089
-0.00484211
0.003534995
-0.002340822
-0.003642325
0.003721537
-0.002079976
-0.002693525
0.003849115
-0.001903756
-0.001934521
0.003916819
-0.001779063
-0.001327507
0.003930061
-0.001685386
-0.0008488995
0.003898145
-0.00161052
-0.0004828375
0.003833049
-0.001547681
-0.0002164401
0.003748355
-0.001493697
-3.640941e-05
0.003658286
-0.001447884
7.401795e-05
0.003576712
-0.00141165
0.000135147
0.003515971
-0.001387056
0.0001709178
0.003484492
-0.001375665
0.0002071678
0.003487293
-0.001378576
0.0002699154
0.003524546
-0.001395832
0.0003835171
0.003591645
-0.001426517
0.0005692156
0.003679822
-0.001469014
0.0008446315
0.003777044
-0.001521549
0.001224378
0.003869199
-0.001583077
0.001722547
0.003941809
-0.001654163
0.002356154
0.003980946
-0.001737919
0.003149946
0.003974218
-0.001841141
0.004143065
0.003911873
-0.00197618
0.005398553
0.003788061
-0.002164015
0.007016589
0.003603312
-0.002438735
0.009157718
0.003369501
-0.002859416
0.01208906
0.003117717
-0.003537188
0.002910816
-0.004433022
-0.01087226
0.003445645
-0.004388317
-0.00809283
0.003799808
-0.003527212
-0.00610424
0.004200489
-0.00288753
-0.004633352
0.00456054
-0.00249643
-0.003512733
0.00484802
-0.002247099
-0.002637642
0.005056267
-0.002082241
-0.001942383
0.005190466
-0.001968904
-0.001386222
0.005260855
-0.001886953
-0.0009435029
0.005279908
-0.001824479
-0.0005969855
0.005261202
-0.001774669