/*--------------------------------*- C++ -*----------------------------------*\
| =========                 |                                                 |
| \\      /  F ield         | OpenFOAM: The Open Source CFD Toolbox           |
|  \\    /   O peration     | Version:  2506                                  |
|   \\  /    A nd           | Website:  www.openfoam.com                      |
|    \\/     M anipulation  |                                                 |
\*---------------------------------------------------------------------------*/
FoamFile
{
    version     2.0;
    format      ascii;
    arch        "LSB;label=32;scalar=64";
    class       volScalarField;
    location    "3000/air";
    object      qr;
}
// * * * * * * * * * * * * * * * * * * * * * * * * * * * * * * * * * * * * * //

dimensions      [1 0 -3 0 0 0 0];

internalField   uniform 0;

boundaryField
{
    maxY
    {
        type            calculated;
        value           uniform 0;
    }
    minX
    {
        type            calculated;
        value           uniform 0;
    }
    maxX
    {
        type            calculated;
        value           uniform 0;
    }
    minY
    {
        type            calculated;
        value           uniform 0;
    }
    maxZ
    {
        type            calculated;
        value           uniform 0;
    }
    air_to_solid
    {
        type            greyDiffusiveRadiationViewFactor;
        value           nonuniform List<scalar> 
1536
(
6.691645
6.571283
6.52791
6.501714
6.48146
6.485298
6.639895
6.511878
6.466617
6.438996
6.417079
6.420104
6.62051
6.491076
6.445204
6.417078
6.394784
6.397393
6.618607
6.488845
6.442753
6.414455
6.392054
6.394517
6.623268
6.493708
6.44786
6.419762
6.397474
6.400143
6.653285
6.525732
6.480471
6.452842
6.431028
6.43409
4.590351
7.401116
-97.25409
3.206585
-97.93065
3.189068
-97.97249
3.183186
-97.98071
3.178458
-97.96579
3.193688
-97.90893
2.441751
6.742407
-97.06561
-97.96097
-98.00377
-98.01203
-97.99708
-97.9386
1.222928
6.738651
-97.1078
-98.0041
-98.04757
-98.05599
-98.04088
-97.98169
1.194603
6.742378
-97.11612
-98.01242
-98.05602
-98.06449
-98.04932
-97.99004
1.1899
6.742563
-97.10138
-97.99756
-98.04092
-98.04931
-98.03423
-97.97512
1.198265
6.757894
-97.04492
-97.93934
-97.98184
-97.99006
-97.97514
-97.91704
1.237869
4.5082
3.125048
3.107528
3.101658
3.096952
3.112215
5.702722
4.695671
4.682997
4.662399
4.658866
4.652283
4.650681
4.647596
4.647897
4.659211
4.669275
4.525043
8.040418
8.200092
6.58916
6.652053
6.543879
6.536088
6.525048
6.488465
6.507741
6.479969
6.458844
6.48553
6.452476
6.435219
6.479636
6.430761
6.4281
6.485623
6.433885
6.398733
3.964414
3.72967
8.190442
8.178889
6.530812
6.622634
6.512447
6.475131
6.493367
6.456252
6.445397
6.447617
6.426091
6.421591
6.419593
6.401951
6.414313
6.397359
6.394359
6.385098
6.400061
6.364444
3.714295
3.689392
8.178103
8.178567
6.510161
6.618537
6.507912
6.453866
6.488808
6.45145
6.42359
6.442726
6.420989
6.399381
6.414436
6.396665
6.391731
6.392041
6.388917
6.361537
6.394508
6.358278
3.685482
3.68071
8.178895
8.180386
6.507947
6.621002
6.510449
6.451472
6.491338
6.454074
6.421002
6.445388
6.423736
6.396673
6.417205
6.39948
6.388922
6.394868
6.3918
6.358277
6.397453
6.361535
3.68069
3.685351
8.181817
8.195274
6.512812
6.640973
6.531454
6.45651
6.512469
6.475601
6.426269
6.467046
6.445738
6.402072
6.439305
6.421835
6.394443
6.4173
6.414496
6.364445
6.420273
6.385131
3.689228
3.714062
8.205546
8.025704
6.544617
6.693509
6.590605
5.630148
4.60997
6.489003
6.572628
6.537172
4.59729
4.576688
6.459235
6.528919
6.508553
4.573156
4.566581
6.435505
6.502468
6.486131
4.564982
4.561912
6.428317
6.482017
6.480078
4.562219
4.573558
6.398783
6.485705
6.485805
3.729423
4.583629
3.963484
4.523281
3.217017
-97.91061
6.74914
-97.0451
-97.91873
3.191379
-97.96613
-97.93951
-97.97557
3.184613
-97.98075
-97.98201
-97.99028
3.179024
-97.97222
-97.99024
-97.98182
3.185471
-97.92969
-97.97533
-97.93873
3.303651
-98.3795
-97.91725
1.238181
-98.80104
-97.94
6.737843
-97.10143
-97.97638
-97.99728
-97.99762
-98.0344
-98.01207
-98.04098
-98.04939
-98.0036
-98.04936
-98.04087
-97.96026
-98.03429
-97.99707
-98.82167
-97.9752
1.198464
-98.85777
-97.98283
6.741849
-97.11612
-97.99112
-98.04098
-98.01243
-98.0494
-98.05602
-98.05603
-98.06452
-98.04749
-98.06449
-98.05596
-98.0036
-98.04933
-98.01198
-98.86419
-97.99005
1.189924
-98.87259
-97.99112
6.742333
-97.10776
-97.98279
-98.04939
-98.00406
-98.04094
-98.06451
-98.04753
-98.05598
-98.05595
-98.05595
-98.04744
-98.01197
-98.04084
-98.00355
-98.87258
-97.98163
1.194444
-98.86412
-97.97633
6.750173
-97.06548
-97.93986
-98.03435
-97.96084
-97.99715
-98.04934
-98.00363
-98.01193
-98.04081
-98.0119
-98.00346
-97.997
-97.99693
-97.9601
-98.85767
-97.93843
1.222636
-98.82149
-97.91855
7.398912
-97.26893
3.135485
-97.93389
-97.97539
-97.95393
3.109838
-97.98942
-97.9901
-97.99578
3.103081
-98.00404
-97.98163
-98.00399
3.097511
-97.9955
-97.93852
-97.98907
3.10399
-97.95294
-98.80081
-97.93218
2.440768
3.301975
-98.39436
6.643092
6.643666
6.687791
5.649232
8.229631
5.73851
8.203554
6.551949
6.557118
6.566479
5.709938
5.698859
6.514485
6.52067
6.521957
5.678628
5.67431
6.488874
6.495922
6.494876
5.663965
5.661014
6.47082
6.478673
6.473792
5.655092
5.655178
6.487077
6.495069
6.477161
5.670659
5.680065
4.980314
5.223533
6.583397
6.591978
6.631629
8.148154
8.141097
6.488101
6.497037
6.503007
6.449954
6.459036
6.457576
6.423596
6.432818
6.429812
6.404533
6.413898
6.407755
6.420896
6.430353
6.410662
5.209511
5.199084
6.570459
6.571747
6.619329
8.132704
8.132128
6.474754
6.47609
6.489764
6.436047
6.437484
6.443796
6.409291
6.410797
6.415592
6.389973
6.391521
6.39325
6.405836
6.407483
6.395787
5.1832
5.181024
6.569947
6.569595
6.61895
8.132267
8.132577
6.474158
6.473814
6.489192
6.435347
6.434982
6.443119
6.40852
6.408143
6.414837
6.389156
6.388771
6.392443
6.404941
6.404524
6.394923
5.179132
5.179694
6.578243
6.574463
6.626905
8.135843
8.13881
6.482578
6.478715
6.497552
6.444152
6.44015
6.451837
6.417582
6.413485
6.423845
6.39837
6.394214
6.401624
6.414562
6.410278
6.40438
5.186493
5.19155
6.623408
6.605516
6.670293
8.162299
8.178741
6.52995
6.510912
6.544683
6.492036
6.472878
6.499606
6.465992
6.44668
6.472108
6.447429
6.427874
6.450525
6.463698
6.444277
6.453659
5.223948
5.240333
5.576248
5.743007
5.713115
5.701834
5.681061
5.67658
5.665794
5.66271
5.656428
5.656406
5.671592
5.680858
-97.64633
-97.73521
3.482378
-97.0178
6.873453
-97.89512
-97.94586
3.199492
-97.87986
-97.92615
-97.9768
3.187394
-97.92185
-97.92872
-97.97937
3.181683
-97.93005
-97.90643
-97.95708
3.178856
-97.91515
-97.84632
-97.89337
3.200537
-97.85793
-97.72028
-97.70479
-97.08104
6.739013
-97.99255
-97.9766
-97.97683
-98.0242
-98.0081
-98.01985
-98.02685
-98.01072
-98.02816
-98.00433
-97.98828
-98.01317
-97.94442
-97.92872
-97.95441
-97.75143
-97.74712
-97.11212
6.739822
-98.02431
-98.01997
-98.00843
-98.05638
-98.05198
-98.05197
-98.05909
-98.05467
-98.06041
-98.03635
-98.03197
-98.04527
-97.97592
-97.97158
-97.98603
-97.75413
-97.75541
-97.11482
6.742538
-98.02703
-98.02832
-98.01113
-98.05914
-98.06044
-98.05471
-98.06185
-98.06316
-98.06317
-98.03909
-98.04039
-98.04802
-97.97863
-97.97993
-97.98874
-97.732
-97.74067
-97.09271
6.743467
-98.00456
-98.01339
-97.98877
-98.03636
-98.04531
-98.03199
-98.03902
-98.04799
-98.04034
-98.01643
-98.02533
-98.0253
-97.95626
-97.96502
-97.96632
-97.65934
-97.68384
-97.0211
6.776724
-97.92759
-97.95485
-97.91221
-97.95874
-97.98615
-97.95444
-97.96132
-97.98874
-97.96265
-97.93901
-97.96638
-97.94774
-97.88025
-97.90736
-97.89005
5.724694
5.742096
5.760329
4.901736
5.071432
4.987608
4.728004
5.001976
5.683856
5.690392
4.974412
4.673828
4.964784
4.952576
4.667176
4.957724
5.66714
5.670548
4.948719
4.656214
4.945768
4.941327
4.654087
4.943371
5.656304
5.658395
4.939516
4.649273
4.937931
4.935984
4.648177
4.936687
5.661991
5.657226
4.936183
4.649468
4.937693
4.947402
4.652993
4.941185
5.388849
5.651547
4.957489
4.665322
4.967232
4.649662
4.510309
4.931864
8.15898
8.175353
8.08137
8.210909
8.326817
8.324656
8.212394
8.33686
6.608948
6.612206
6.584855
6.622363
6.668898
6.6046
6.587268
6.562557
6.568933
6.540165
6.545618
6.530369
6.529223
6.5439
6.510278
6.517357
6.507496
6.498364
6.507612
6.514018
6.501117
6.491497
6.499028
6.472411
6.484563
6.477999
6.465448
6.483206
6.490464
6.478069
6.465592
6.47168
6.446338
6.459832
6.454595
6.440522
6.469784
6.477812
6.471498
6.447131
6.450207
6.427623
6.446003
6.447677
6.426445
6.492921
6.502879
6.443459
6.463468
6.453414
6.444085
6.468052
6.417661
6.44885
5.224132
5.24053
4.123193
3.789622
4.310247
4.316445
3.750438
4.332305
8.134072
8.136649
8.31454
8.184364
8.308056
8.301935
8.180751
8.304095
6.547324
6.556039
6.522008
6.577673
6.626125
6.574
6.541538
6.516182
6.537827
6.476094
6.48507
6.466119
6.482191
6.497133
6.478398
6.470144
6.46013
6.466315
6.44292
6.45204
6.436244
6.443876
6.451536
6.439924
6.436808
6.430103
6.43283
6.417692
6.42695
6.412301
6.41739
6.423634
6.413328
6.411464
6.406051
6.407387
6.403273
6.412679
6.404887
6.398237
6.401477
6.394105
6.396956
6.398535
6.392814
6.425709
6.435198
6.375529
6.414463
6.404274
6.410201
6.419199
6.368894
6.414859
5.18662
5.191698
4.301312
3.703119
4.290363
4.277023
3.695051
4.282504
8.13207
8.131984
8.300913
8.178007
8.300621
8.300931
8.17823
8.300695
6.534247
6.535553
6.508851
6.569795
6.61874
6.569545
6.533574
6.508178
6.533314
6.462605
6.463967
6.45248
6.474055
6.489081
6.473775
6.461889
6.451753
6.461604
6.428897
6.430355
6.422117
6.435276
6.443042
6.434954
6.428114
6.421327
6.427789
6.403314
6.404833
6.397854
6.408472
6.414782
6.408122
6.402489
6.397025
6.402139
6.388651
6.390211
6.390157
6.389125
6.392407
6.388756
6.387799
6.389295
6.387431
6.410357
6.412063
6.35975
6.404919
6.394898
6.404515
6.409398
6.358731
6.408977
5.179148
5.17974
4.273271
3.682946
4.270848
4.268723
3.681422
4.269399
8.134084
8.133115
8.301208
8.179212
8.301526
8.302845
8.179641
8.302003
6.533704
6.533356
6.508293
6.570713
6.61968
6.572104
6.534469
6.509058
6.535864
6.461981
6.461631
6.45183
6.474924
6.48995
6.476327
6.462763
6.452632
6.46419
6.428176
6.427807
6.421377
6.436167
6.443928
6.437649
6.429009
6.422224
6.430513
6.402529
6.40215
6.397057
6.409372
6.415682
6.410909
6.40339
6.397927
6.40494
6.387824
6.387438
6.389316
6.390027
6.393309
6.391595
6.388703
6.390207
6.390284
6.409415
6.408982
6.358728
6.405874
6.395829
6.407538
6.410385
6.359746
6.412106
5.183098
5.18095
4.268705
3.681364
4.269345
4.273149
3.68285
4.270759
8.151089
8.143645
8.304414
8.184319
8.307116
8.318634
8.188567
8.311616
6.542033
6.538228
6.516633
6.584078
6.632556
6.592775
6.547919
6.522556
6.556737
6.4705
6.466599
6.46045
6.488563
6.503509
6.497581
6.476524
6.46652
6.485577
6.437059
6.433028
6.430327
6.450288
6.457939
6.45943
6.44323
6.436532
6.452408
6.411637
6.407522
6.406205
6.423831
6.43007
6.433101
6.417912
6.412504
6.427214
6.397077
6.392907
6.398644
6.404699
6.407935
6.414101
6.403431
6.405036
6.412873
6.419277
6.414918
6.368902
6.421023
6.410798
6.43051
6.42581
6.375547
6.435327
5.209335
5.19892
4.276872
3.694859
4.282327
4.301097
3.702904
4.290165
8.219456
8.204555
8.329279
8.218089
8.341619
8.066062
8.213582
8.328404
6.588186
6.569735
6.563401
6.644326
6.689384
6.645372
6.61005
6.585871
6.613766
5.728086
5.74578
5.688145
4.816153
4.988073
4.986746
4.642309
5.001294
6.51803
6.498947
6.508117
6.552825
6.567421
6.558369
6.540978
6.531124
6.546783
5.686459
5.693176
4.973518
4.588119
4.963863
4.951608
4.581465
4.956778
6.485061
6.465875
6.478457
6.515139
6.522659
6.52161
6.50822
6.501681
6.514891
5.669109
5.672663
4.947731
4.570506
4.944761
4.940287
4.568381
4.942347
6.460201
6.440833
6.454934
6.489363
6.495401
6.496622
6.48366
6.47849
6.491112
5.657753
5.659965
4.938461
4.563578
4.936862
4.934892
4.562488
4.935606
6.446282
6.426677
6.447937
6.471187
6.474184
6.479188
6.470126
6.471818
6.478288
5.663019
5.658351
4.935082
4.563798
4.936583
4.94628
4.567331
4.940068
6.468243
6.449009
6.41773
6.487354
6.47746
6.495439
6.493152
6.443554
6.503192
4.979761
5.387332
5.223269
5.651796
4.316219
3.750168
4.332056
4.95636
4.579674
4.965986
4.122287
4.647905
3.789222
4.508822
4.309882
4.930406
-97.81876
-97.87337
3.251982
-97.85956
-97.65917
-97.02102
6.767209
-97.68402
-97.84814
-97.8914
-97.87474
-97.90683
-97.9575
3.194626
-97.91545
-97.92734
-97.91196
-97.95502
-97.93912
-97.94777
-97.96688
-97.92885
-97.9795
3.185972
-97.9301
-97.95849
-97.95419
-97.98632
-97.96119
-97.96244
-97.98903
-97.92596
-97.9766
3.180232
-97.9216
-97.96107
-97.96239
-97.98892
-97.95832
-97.95397
-97.98617
-97.89456
-97.94525
3.180957
-97.87894
-97.93877
-97.9475
-97.96657
-97.92683
-97.91111
-97.95457
-97.95983
-97.95923
3.194089
-98.69759
1.44891
-97.88005
-97.88984
-97.90758
-98.01127
-98.77133
1.270713
-98.03988
-97.91138
-97.89578
-97.95573
-97.73207
-97.09278
6.73772
-97.74073
-97.92325
-97.96767
-97.93192
-98.00455
-97.98854
-98.01334
-98.00464
-97.98885
-98.01345
-98.0167
-98.02552
-98.02555
-98.02693
-98.01081
-98.02819
-98.03644
-98.03207
-98.04536
-98.03918
-98.04045
-98.04811
-98.02409
-98.00796
-98.01971
-98.0391
-98.04042
-98.04805
-98.03633
-98.03195
-98.04527
-97.9922
-97.9762
-97.97618
-98.01652
-98.02538
-98.0254
-98.00434
-97.98826
-98.01319
-98.07636
-98.06076
-98.83721
1.211942
-97.95637
-97.96642
-97.96511
-98.08824
-98.84904
1.204007
-98.09696
-97.94264
-97.93834
-97.98714
-97.75414
-97.11484
6.740953
-97.75542
-97.94535
-97.98985
-97.94663
-98.03646
-98.03209
-98.04536
-98.02704
-98.01115
-98.02832
-98.0392
-98.04811
-98.04048
-98.05915
-98.05474
-98.06044
-98.05915
-98.05473
-98.06045
-98.06192
-98.06321
-98.06322
-98.05631
-98.05189
-98.05189
-98.06187
-98.06319
-98.06317
-98.05908
-98.05466
-98.06038
-98.02411
-98.01974
-98.00796
-98.03911
-98.04804
-98.0404
-98.02686
-98.01069
-98.02814
-98.10777
-98.10342
-98.86855
1.192118
-97.97866
-97.98877
-97.97994
-98.1105
-98.87129
1.190621
-98.11179
-97.94534
-97.94662
-97.98983
-97.75141
-97.1121
6.742458
-97.74709
-97.94262
-97.98711
-97.9383
-98.03918
-98.04048
-98.04809
-98.02429
-98.0084
-98.01993
-98.03643
-98.04533
-98.03205
-98.06191
-98.06322
-98.0632
-98.05636
-98.05194
-98.05194
-98.05912
-98.06041
-98.0547
-98.05906
-98.06037
-98.05464
-98.05906
-98.06038
-98.05463
-98.05628
-98.05186
-98.05185
-98.02684
-98.02814
-98.01067
-98.03632
-98.04524
-98.03192
-98.02408
-98.00792
-98.01969
-98.11047
-98.11178
-98.87126
1.190551
-97.97588
-97.98599
-97.97152
-98.10772
-98.8685
1.192002
-98.10335
-97.92317
-97.93187
-97.96759
-97.72018
-97.08094
6.745776
-97.70465
-97.91128
-97.95562
-97.89564
-98.01662
-98.02549
-98.02545
-97.99244
-97.97672
-97.97647
-98.00445
-98.01323
-97.98841
-98.0391
-98.04806
-98.04037
-98.0241
-98.01975
-98.00796
-98.02683
-98.02809
-98.01068
-98.03625
-98.04521
-98.03187
-98.02674
-98.02806
-98.01058
-98.02398
-98.0196
-98.00782
-98.00425
-98.01312
-97.98816
-98.00421
-98.01305
-97.98813
-97.99208
-97.97605
-97.97605
-98.08812
-98.09687
-98.84892
1.203771
-97.94428
-97.95428
-97.92855
-98.07621
-98.83706
1.211675
-98.06058
-97.84837
-97.87456
-97.89165
-97.6503
-97.02059
6.881873
-97.75746
3.400549
-97.82325
-97.86411
-97.89657
3.170427
-97.93937
-97.9667
-97.94803
-97.89968
-97.88441
-97.96914
3.117952
-97.91138
-97.92001
-97.98079
3.113086
-97.96144
-97.98885
-97.96269
-97.93071
-97.9264
-98.00009
3.105856
-97.9334
-97.93465
-98.00279
3.104437
-97.95856
-97.98599
-97.95421
-97.93327
-97.9346
-98.00265
3.100159
-97.93051
-97.92615
-97.99988
3.098714
-97.92706
-97.95437
-97.91133
-97.91097
-97.91969
-97.98035
3.097357
-97.89909
-97.88346
-97.96852
3.099467
-98.01141
-98.03965
-98.77137
1.270366
-97.85079
-97.86244
-97.91655
3.119041
-97.96378
-98.70036
1.448399
-97.98148
3.112324
)
;
        qro             uniform 0;
    }
    air_to_floor
    {
        type            greyDiffusiveRadiationViewFactor;
        value           nonuniform List<scalar> 
900
(
29.54588
32.88772
35.91085
38.62717
41.04671
43.18038
45.04096
46.64219
48.02403
49.18023
50.10163
50.81162
51.35002
51.71486
51.89289
51.87117
51.6576
51.25785
50.66406
49.87308
48.86193
47.61452
46.12967
44.40729
42.42616
40.17438
37.6408
34.8155
31.68924
28.25074
32.99791
36.28017
39.23923
41.88876
44.24064
46.30758
48.10379
49.64413
50.96913
52.07426
52.95324
53.6299
54.14154
54.48721
54.65414
54.63213
54.42886
54.04715
53.47812
52.71767
51.74543
50.54548
49.11332
47.44666
45.52504
43.33543
40.86522
38.10277
35.03703
31.65498
36.13645
39.35507
42.24647
44.82606
47.1075
49.10526
50.83497
52.31256
53.57922
54.6318
55.46709
56.10933
56.59321
56.91932
57.07541
57.05344
56.85989
56.49659
55.95319
55.22435
54.29219
53.14097
51.76297
50.15377
48.29371
46.16871
43.7647
41.06833
38.06683
34.74542
38.97278
42.12548
44.94738
47.45556
49.66541
51.59306
53.25556
54.67028
55.87778
56.87751
57.66878
58.27605
58.73197
59.03849
59.18388
59.16204
58.97799
58.63311
58.11549
57.4187
56.52686
55.42455
54.10123
52.54967
50.75186
48.6924
46.3558
43.72709
40.79179
37.53348
41.51611
44.60241
47.35475
49.79178
51.93051
53.7887
55.38473
56.73759
57.88654
58.83424
59.58201
60.15461
60.58294
60.87029
61.00565
60.9836
60.80879
60.48183
59.98956
59.32446
58.47231
57.41801
56.14854
54.65368
52.91736
50.92283
48.65324
46.09207
43.22322
40.02866
43.77628
46.7975
49.48193
51.84972
53.91943
55.7103
57.2421
58.53513
59.62745
60.52494
61.23066
61.76961
62.17129
62.44023
62.56625
62.54368
62.37783
62.06793
61.60005
60.96557
60.1516
59.14341
57.9257
56.48551
54.80854
52.87688
50.67235
48.17696
45.3731
42.24118
45.76441
48.72333
51.34298
53.64491
55.64908
57.37616
58.84719
60.08353
61.12259
61.97242
62.63857
63.14535
63.52184
63.77339
63.89075
63.86751
63.71011
63.41626
62.9713
62.36566
61.58764
60.62283
59.45365
58.06497
56.444
54.57182
52.42907
49.99634
47.25457
44.18279
47.49228
50.39283
52.95198
55.19277
57.1363
58.80435
60.21913
61.40299
62.39303
63.19864
63.82815
64.30513
64.65842
64.89411
65.00316
64.97924
64.8297
64.55061
64.12668
63.54753
62.80257
61.8776
60.75296
59.41171
57.8424
56.02513
53.93945
51.56491
48.8813
45.86605
48.98571
51.83151
54.334
56.51716
58.40345
60.0159
61.37794
62.51274
63.4572
64.22149
64.81682
65.26602
65.59773
65.81898
65.92009
65.89558
65.75336
65.48809
65.0838
64.52942
63.81536
62.92746
61.84431
60.54746
59.02677
57.26151
55.22998
52.91047
50.28139
47.31931
50.24083
53.03892
55.49086
57.62257
59.45785
61.02077
62.33563
63.42642
64.33004
65.05751
65.62216
66.04654
66.35896
66.56749
66.66127
66.63633
66.50051
66.24769
65.86092
65.3286
64.64215
63.78731
62.74143
61.4844
60.00713
58.28803
56.30467
54.03432
51.4543
48.54003
51.24062
54.01329
56.42621
58.51561
60.30847
61.83003
63.10553
64.15958
65.02885
65.72537
66.26393
66.66732
66.96357
67.16122
67.24885
67.22355
67.0929
66.85057
66.47858
65.9649
65.30162
64.47433
63.4594
62.23557
60.79443
59.1137
57.17027
54.94058
52.40093
49.52583
84.45267
54.76152
57.15564
59.21252
60.97152
62.45984
63.70344
64.7277
65.56908
66.2409
66.75781
67.1442
67.42748
67.61612
67.69884
67.67343
67.54709
67.31324
66.95317
66.45438
65.80951
65.00457
64.01513
62.81969
61.4093
59.75988
57.84906
55.65342
53.14526
50.29986
52.60189
55.34216
57.70182
59.73111
61.46299
62.92489
64.14329
65.14406
65.96344
66.61578
67.11568
67.48874
67.7622
67.94359
68.02231
67.99668
67.87364
67.64649
67.29606
66.80915
66.17895
65.39232
64.42577
63.26085
61.88469
60.26392
58.38824
25.43219
22.94961
20.1242
85.39846
55.70191
58.06249
60.07518
61.78831
63.23177
64.43256
65.41699
66.22112
66.86005
67.34815
67.71172
67.97822
68.15447
68.23035
68.20461
68.08386
67.86137
67.51779
67.03934
66.41974
65.64729
64.70291
63.57934
62.26047
60.67411
58.89517
25.96608
23.49859
20.68111
85.57504
55.88869
58.24444
60.24783
61.95119
63.38516
64.57695
65.55283
66.3488
66.98064
67.46268
67.82121
68.08409
68.25773
68.33219
68.30639
68.18683
67.96675
67.6267
67.15261
66.53854
65.77343
64.83967
63.73352
62.43439
60.86121
59.09977
26.18269
23.72947
20.93264
85.5715
55.88765
58.24424
60.2478
61.9512
63.38518
64.57696
65.55285
66.34881
66.98061
67.46255
67.8212
68.08412
68.25777
68.33223
68.30642
68.18686
67.96678
67.62674
67.15264
66.53859
65.77364
64.84057
63.73631
62.43902
60.86644
59.10574
26.18926
23.73823
20.94651
85.37107
55.69529
58.06136
60.07501
61.78829
63.23178
64.43259
65.41703
66.2211
66.85965
67.34665
67.71134
67.97823
68.15455
68.23044
68.2047
68.08396
67.86146
67.51788
67.03944
66.41997
65.64836
64.70795
63.59577
62.28997
60.70835
58.93818
26.0119
23.55136
20.75044
84.99692
55.31922
57.69868
59.73068
61.4629
62.92486
64.14328
65.14403
65.96301
66.6128
67.10494
67.4858
67.76186
67.94367
68.02244
67.99682
67.87378
67.64662
67.29619
66.80932
66.17947
65.39521
64.44033
63.31146
61.98767
60.38825
58.5993
25.65264
23.17353
20.35462
84.54645
54.77108
57.15615
59.21237
60.97137
62.45972
63.70334
64.72748
65.56747
66.23007
66.71382
67.13343
67.42601
67.61608
67.69896
67.67357
67.54724
67.31339
66.95331
66.45456
65.81005
65.00748
64.0297
62.87032
61.51232
59.88423
58.06008
55.87334
53.36645
50.52247
51.25414
54.01508
56.42573
58.5149
60.30775
61.82933
63.10484
64.15885
65.02773
65.7217
66.25251
66.66371
66.96258
67.16068
67.24839
67.22312
67.09248
66.85017
66.47819
65.96453
65.30139
64.47496
63.46403
62.25163
60.82361
59.14761
57.21274
54.98429
52.44465
49.56994
50.24105
53.03782
55.48945
57.62111
59.45638
61.01929
62.33415
63.42493
64.32849
65.05558
65.61915
66.04466
66.35751
66.56614
66.65996
66.63506
66.49927
66.24649
65.85975
65.32747
64.64109
63.78645
62.74142
61.48662
60.01145
58.29304
56.31025
54.03931
51.45772
48.54494
48.98375
51.82939
54.33181
56.51493
58.40119
60.0136
61.37561
62.51038
63.45482
64.21907
64.8143
65.26363
65.59542
65.81672
65.91788
65.89341
65.75124
65.48602
65.08178
64.52746
63.81347
62.92565
61.84269
60.54621
59.02581
57.26056
55.22834
52.90499
50.26648
47.31302
47.48932
50.38979
52.94886
55.18958
57.13304
58.80102
60.21574
61.39954
62.38953
63.19513
63.82462
64.30161
64.65493
64.89066
64.99976
64.9759
64.82642
64.54741
64.12356
63.5445
62.79963
61.87475
60.75022
59.4091
57.83987
56.02241
53.93462
51.54848
48.83097
45.84727
45.7603
48.71909
51.33863
53.64044
55.6445
57.37146
58.84238
60.07862
61.1176
61.96738
62.63349
63.14025
63.51676
63.76834
63.88575
63.86257
63.70526
63.4115
62.96665
62.36113
61.58325
60.61857
59.44953
58.061
56.44016
54.568
52.42459
49.98809
47.23696
44.17387
43.77102
46.79208
49.47634
51.84398
53.91352
55.70424
57.23588
58.52877
59.62098
60.51838
61.22403
61.76293
62.1646
62.43358
62.55965
62.53716
62.3714
62.06162
61.59387
60.95955
60.14575
59.13773
57.92021
56.4802
54.80341
52.87191
50.6674
48.17145
45.36612
42.23581
41.50972
44.59582
47.34795
49.78477
51.92331
53.78129
55.37712
56.72981
57.87861
58.82618
59.57386
60.14639
60.5747
60.86207
60.99748
60.97551
60.8008
60.47398
59.98188
59.31697
58.46502
57.41093
56.14168
54.64705
52.91096
50.91665
48.64726
46.08621
43.21736
40.02318
38.9653
42.11775
44.9394
47.44734
49.65694
51.58435
53.24662
54.66112
55.86844
56.86803
57.65917
58.26635
58.72223
59.02876
59.1742
59.15245
58.96851
58.62378
58.10634
57.40977
56.51817
55.4161
54.09304
52.54176
50.74422
48.68502
46.34868
43.72021
40.78514
37.5271
36.12792
39.34625
42.23736
44.81667
47.09783
49.09531
50.82475
52.3021
53.56854
54.62094
55.45609
56.09822
56.58205
56.90816
57.06431
57.04242
56.84899
56.48585
55.94266
55.21406
54.28216
53.13122
51.75351
50.14461
48.28486
46.16016
43.75645
41.06038
38.05916
34.73804
32.98836
36.27029
39.22904
41.87825
44.22982
46.29645
48.09236
49.63242
50.95718
52.06212
52.94093
53.61747
54.12904
54.47472
54.64169
54.61977
54.41663
54.03508
53.46628
52.70609
51.73413
50.53448
49.10264
47.43632
45.51503
43.32576
40.85589
38.09376
35.02835
31.64662
29.53536
32.87684
35.89964
38.6156
41.0348
43.16813
45.02839
46.62932
48.0109
49.16688
50.0881
50.79795
51.33628
51.7011
51.87918
51.85755
51.64411
51.24454
50.65097
49.86028
48.84943
47.60234
46.11783
44.39581
42.41505
40.16364
37.63042
34.80548
31.67958
28.24144
)
;
        qro             uniform 0;
    }
}


// ************************************************************************* //
