/*--------------------------------*- C++ -*----------------------------------*\
| =========                 |                                                 |
| \\      /  F ield         | OpenFOAM: The Open Source CFD Toolbox           |
|  \\    /   O peration     | Version:  2506                                  |
|   \\  /    A nd           | Website:  www.openfoam.com                      |
|    \\/     M anipulation  |                                                 |
\*---------------------------------------------------------------------------*/
FoamFile
{
    version     2.0;
    format      ascii;
    arch        "LSB;label=32;scalar=64";
    class       volVectorField;
    location    "3000/air";
    object      U;
}
// * * * * * * * * * * * * * * * * * * * * * * * * * * * * * * * * * * * * * //

dimensions      [0 1 -1 0 0 0 0];

internalField   nonuniform List<vector> 
33752
(
(-0.07482996 -0.07670797 -0.04274385)
(-0.05056385 -0.09283141 -0.03848906)
(-0.0382054 -0.1039989 -0.0351903)
(-0.03040439 -0.1114851 -0.03304722)
(-0.02463787 -0.1164388 -0.03159662)
(-0.02010678 -0.1197291 -0.030587)
(-0.01637357 -0.121903 -0.02987168)
(-0.01319226 -0.1233088 -0.02935804)
(-0.01042332 -0.1241831 -0.02898494)
(-0.00797999 -0.1246961 -0.02871443)
(-0.005803815 -0.1249761 -0.02852062)
(-0.003847985 -0.1251226 -0.02838839)
(-0.002071582 -0.1252128 -0.02830753)
(-0.000430703 -0.1253069 -0.02827069)
(0.001131874 -0.1254483 -0.02826993)
(0.002671304 -0.1256517 -0.02830803)
(0.004250963 -0.12591 -0.02839188)
(0.005921028 -0.1262015 -0.02852389)
(0.00773394 -0.1264861 -0.02870642)
(0.009740115 -0.1267041 -0.02894459)
(0.01198829 -0.1267758 -0.02924699)
(0.01453039 -0.1265979 -0.02962909)
(0.01743024 -0.1260374 -0.03011476)
(0.02077866 -0.1249175 -0.0307424)
(0.02472021 -0.1229932 -0.03157089)
(0.02950585 -0.1199039 -0.03269503)
(0.03558349 -0.1150825 -0.03426225)
(0.04377171 -0.1076249 -0.03653539)
(0.05666003 -0.09632007 -0.03999974)
(0.08193807 -0.07980064 -0.04445475)
(-0.09095995 -0.05252972 -0.03848433)
(-0.06091012 -0.06284559 -0.0326928)
(-0.04469371 -0.07156503 -0.02885971)
(-0.0344075 -0.07804074 -0.02657843)
(-0.02703139 -0.08265756 -0.02511942)
(-0.02145449 -0.08587605 -0.02415036)
(-0.01703226 -0.08806269 -0.02349101)
(-0.01339798 -0.08949151 -0.02303002)
(-0.01034138 -0.09037013 -0.0227023)
(-0.007735212 -0.09086141 -0.02246644)
(-0.00549378 -0.09109629 -0.02229812)
(-0.003551629 -0.09118179 -0.02218168)
(-0.001848848 -0.09120369 -0.02210892)
(-0.0003221449 -0.09122624 -0.02207256)
(0.001099236 -0.09128952 -0.02206795)
(0.002483854 -0.09141602 -0.02209764)
(0.003913628 -0.09160997 -0.02216705)
(0.005461496 -0.09184797 -0.0222774)
(0.007199245 -0.09208331 -0.02243079)
(0.009194531 -0.09224776 -0.02263099)
(0.01151372 -0.09225231 -0.02288636)
(0.01422887 -0.09198656 -0.02321117)
(0.01743148 -0.09131513 -0.02363028)
(0.0212555 -0.09006986 -0.02418324)
(0.02591763 -0.08803572 -0.0249366)
(0.03179457 -0.08492886 -0.02600128)
(0.03954686 -0.08036766 -0.02756384)
(0.05031688 -0.07386948 -0.02996667)
(0.06720598 -0.06501815 -0.03397568)
(0.09846701 -0.05444351 -0.04000994)
(-0.1020834 -0.04020092 -0.03518041)
(-0.06963035 -0.04664109 -0.02885543)
(-0.05097106 -0.05289188 -0.02459509)
(-0.03869981 -0.05797664 -0.02209107)
(-0.02982006 -0.06182354 -0.02052155)
(-0.02313924 -0.06459242 -0.01950381)
(-0.01791975 -0.06648584 -0.0188241)
(-0.01372027 -0.06769256 -0.01835557)
(-0.01028134 -0.06837875 -0.01802185)
(-0.007441259 -0.06868911 -0.01777895)
(-0.005091244 -0.06875069 -0.01759971)
(-0.003145312 -0.06867386 -0.01747014)
(-0.001524813 -0.06855237 -0.01738234)
(-0.0001438311 -0.06846002 -0.0173313)
(0.001089932 -0.06844787 -0.01731484)
(0.002275437 -0.06854108 -0.01733787)
(0.003519165 -0.06874045 -0.0174038)
(0.004921458 -0.06901854 -0.01751311)
(0.006578649 -0.0693224 -0.01766575)
(0.008580961 -0.06957618 -0.01786424)
(0.01101512 -0.06968407 -0.01811503)
(0.01397416 -0.06953263 -0.01843264)
(0.01757474 -0.06899129 -0.01884271)
(0.02198577 -0.06791055 -0.01939014)
(0.02747599 -0.06611864 -0.02015011)
(0.03449818 -0.06341895 -0.02125309)
(0.04381052 -0.05959922 -0.02291632)
(0.05663997 -0.05448672 -0.02553886)
(0.07606952 -0.0481412 -0.02997825)
(0.1098453 -0.04154216 -0.03655813)
(-0.1095015 -0.03240922 -0.03302285)
(-0.07608342 -0.0363527 -0.02656314)
(-0.05606085 -0.04060184 -0.02208248)
(-0.04243463 -0.04431279 -0.01943327)
(-0.03237012 -0.04723966 -0.0177722)
(-0.02472204 -0.04937406 -0.0166941)
(-0.01874389 -0.05080042 -0.01597378)
(-0.01397265 -0.05163513 -0.01547199)
(-0.01012711 -0.05200249 -0.01510791)
(-0.00702985 -0.05202731 -0.01483288)
(-0.004557009 -0.05183003 -0.01462063)
(-0.002608612 -0.0515241 -0.01445735)
(-0.001086968 -0.05121088 -0.01433862)
(0.0001168956 -0.05097301 -0.01426142)
(0.001122821 -0.05087071 -0.01422944)
(0.002065712 -0.05093364 -0.01424928)
(0.003083555 -0.05116281 -0.01432259)
(0.004309284 -0.05152701 -0.01444742)
(0.005868781 -0.05196602 -0.01462154)
(0.007876382 -0.05239535 -0.01484404)
(0.01043836 -0.05271185 -0.0151193)
(0.01366354 -0.05279981 -0.0154599)
(0.01768393 -0.05253534 -0.01589267)
(0.02268607 -0.05178991 -0.01646485)
(0.02896052 -0.05043426 -0.01725911)
(0.03698398 -0.04834683 -0.01841544)
(0.0475235 -0.04543655 -0.02016663)
(0.06175971 -0.04170599 -0.02293102)
(0.08261159 -0.03739755 -0.02759342)
(0.1174077 -0.03336452 -0.03430757)
(-0.1143721 -0.0266389 -0.03154996)
(-0.08066096 -0.02896453 -0.0250869)
(-0.05989633 -0.03169839 -0.02049957)
(-0.04536968 -0.03421134 -0.01776016)
(-0.03441115 -0.03622995 -0.01602153)
(-0.02596007 -0.03766804 -0.01487825)
(-0.01930578 -0.0385395 -0.01409887)
(-0.01399604 -0.0389083 -0.01354112)
(-0.009754093 -0.0388667 -0.01311886)
(-0.00640213 -0.03852247 -0.01278363)
(-0.003814463 -0.03799243 -0.01250894)
(-0.001882726 -0.03739455 -0.01228531)
(-0.0004938683 -0.03684075 -0.0121116)
(0.0004854466 -0.03642467 -0.01199208)
(0.001206793 -0.03621685 -0.01193691)
(0.001846469 -0.03625371 -0.01195559)
(0.002580056 -0.03653692 -0.01204691)
(0.00358035 -0.03703041 -0.01220647)
(0.005006412 -0.03766484 -0.01242736)
(0.006998315 -0.03834452 -0.01270384)
(0.009678559 -0.0389562 -0.01303513)
(0.01316484 -0.03937967 -0.01343092)
(0.01759257 -0.03949542 -0.01391627)
(0.02314855 -0.03919185 -0.01454044)
(0.03012019 -0.0383731 -0.0153889)
(0.03897274 -0.03697077 -0.0166078)
(0.05043797 -0.0349675 -0.01843307)
(0.06560935 -0.03244646 -0.02128716)
(0.08723917 -0.02968253 -0.02605525)
(0.122354 -0.02731292 -0.03277143)
(-0.1175668 -0.02209688 -0.03051179)
(-0.0838276 -0.02337006 -0.02409568)
(-0.06264148 -0.02499167 -0.01946429)
(-0.04750063 -0.02652792 -0.01666682)
(-0.03586066 -0.02773352 -0.0148639)
(-0.02674648 -0.02849791 -0.01365132)
(-0.01949754 -0.02879736 -0.0127998)
(-0.01369295 -0.02866429 -0.01216325)
(-0.009076007 -0.02816837 -0.01165551)
(-0.005484578 -0.0274073 -0.01122718)
(-0.002800935 -0.02649741 -0.01085611)
(-0.0009176567 -0.02556513 -0.01053698)
(0.0002917124 -0.02473378 -0.01027665)
(0.0009820391 -0.02411597 -0.01009333)
(0.001348097 -0.0237915 -0.01000673)
(0.001605672 -0.02380636 -0.01002513)
(0.001980266 -0.02416245 -0.01014709)
(0.002690424 -0.02481781 -0.01036401)
(0.003933632 -0.02569157 -0.01066237)
(0.005876138 -0.02667396 -0.01102758)
(0.008653388 -0.02763735 -0.01145108)
(0.01238346 -0.02845382 -0.01193591)
(0.017194 -0.02900418 -0.01250417)
(0.02325722 -0.0291877 -0.01320393)
(0.03083977 -0.0289308 -0.01412291)
(0.04037599 -0.02819818 -0.01540853)
(0.05254574 -0.02701064 -0.01729747)
(0.06835561 -0.02547835 -0.02020773)
(0.09042909 -0.02384851 -0.02502014)
(0.125584 -0.02256172 -0.03168497)
(-0.1196339 -0.01835051 -0.02976333)
(-0.08595217 -0.01892927 -0.02341037)
(-0.06450175 -0.0197473 -0.01876407)
(-0.04891489 -0.02051831 -0.01592887)
(-0.03673574 -0.02104088 -0.01406854)
(-0.02706084 -0.02120353 -0.01278452)
(-0.01928358 -0.02096706 -0.011847)
(-0.01302196 -0.02034502 -0.01111036)
(-0.008052225 -0.01939438 -0.01048649)
(-0.004238096 -0.01820719 -0.009928919)
(-0.001481524 -0.01690439 -0.009418743)
(0.0003193256 -0.01561863 -0.008958937)
(0.001290704 -0.01449712 -0.008576282)
(0.001623616 -0.01366555 -0.008305826)
(0.00154843 -0.01322116 -0.008173441)
(0.001334117 -0.01321731 -0.00819155)
(0.001263169 -0.0136569 -0.008358746)
(0.001609037 -0.0144911 -0.008661027)
(0.002611867 -0.01562559 -0.009074033)
(0.004466473 -0.01693487 -0.009569839)
(0.007316222 -0.01827126 -0.01012718)
(0.01127103 -0.01949716 -0.01073911)
(0.01644012 -0.02048968 -0.01142147)
(0.02296964 -0.02115326 -0.01222062)
(0.03109375 -0.02142782 -0.01322415)
(0.04120653 -0.02129645 -0.01458111)
(0.05393335 -0.02079685 -0.01652616)
(0.07020645 -0.0200399 -0.01947428)
(0.0925591 -0.01923003 -0.02430009)
(0.1276621 -0.0186571 -0.03089894)
(-0.1209226 -0.01515671 -0.02921304)
(-0.08731006 -0.01527775 -0.0229209)
(-0.06566771 -0.0155258 -0.01827292)
(-0.04973105 -0.01572033 -0.01540803)
(-0.03710281 -0.01569998 -0.01349389)
(-0.02693836 -0.01536341 -0.01213249)
(-0.01868053 -0.01466546 -0.01109557)
(-0.01199107 -0.01361055 -0.01023469)
(-0.006685176 -0.01224737 -0.00946215)
(-0.002663117 -0.01066756 -0.00873172)
(0.0001511177 -0.00899258 -0.008028009)
(0.001826598 -0.007377095 -0.007377556)
(0.002510508 -0.005980761 -0.006832924)
(0.002411767 -0.004947406 -0.006442377)
(0.001806899 -0.004389611 -0.006244479)
(0.001025974 -0.00436996 -0.006260549)
(0.0004196105 -0.00489264 -0.006490493)
(0.0003252873 -0.005900965 -0.006912226)
(0.001029912 -0.007286147 -0.007486627)
(0.002759768 -0.008908988 -0.008164355)
(0.005660738 -0.0105984 -0.008904953)
(0.009824321 -0.01220671 -0.009686851)
(0.0153334 -0.01360412 -0.01051782)
(0.0222983 -0.0146963 -0.01144093)
(0.03091347 -0.01543082 -0.01254459)
(0.041529 -0.01580061 -0.01397867)
(0.05471894 -0.01584865 -0.01597823)
(0.0713553 -0.01567665 -0.01895531)
(0.09391048 -0.01544766 -0.02378292)
(0.1289471 -0.01534492 -0.03031708)
(-0.1216694 -0.01237713 -0.0288009)
(-0.08810958 -0.01220623 -0.02256277)
(-0.06630662 -0.01206792 -0.01791543)
(-0.05007479 -0.01185253 -0.01502411)
(-0.03705585 -0.01143298 -0.01305465)
(-0.02645076 -0.01071921 -0.01160977)
(-0.01774779 -0.009666372 -0.01045825)
(-0.01065176 -0.008272897 -0.009449622)
(-0.005023207 -0.00658386 -0.008492674)
(-0.0007968598 -0.004686444 -0.007537711)
(0.002048364 -0.002706443 -0.006580987)
(0.0035762 -0.0007930569 -0.005674945)
(0.003934963 0.0008706015 -0.00489841)
(0.003341227 0.002106646 -0.004328957)
(0.002120711 0.00277956 -0.004030041)
(0.0006769524 0.002813904 -0.004039879)
(-0.0005550638 0.002200072 -0.004360626)
(-0.001150131 0.001011929 -0.004955403)
(-0.0007893826 -0.0006199306 -0.00576407)
(0.0007927406 -0.002532507 -0.006704333)
(0.003726198 -0.004518812 -0.007688618)
(0.008086666 -0.006436193 -0.008688448)
(0.01392207 -0.008156372 -0.009703996)
(0.02129967 -0.009585297 -0.01077657)
(0.03036913 -0.01067525 -0.01199585)
(0.04143634 -0.01142442 -0.01351501)
(0.05502911 -0.01187606 -0.0155703)
(0.07197173 -0.01211955 -0.01857476)
(0.09469642 -0.01228382 -0.02340124)
(0.1296828 -0.01247902 -0.02987943)
(-0.1220444 -0.009925714 -0.02848891)
(-0.08851373 -0.009587289 -0.02229525)
(-0.06656361 -0.009211439 -0.0176479)
(-0.05007166 -0.008736144 -0.01472913)
(-0.03670361 -0.008060205 -0.01270276)
(-0.02569692 -0.007106013 -0.01116765)
(-0.0165787 -0.005829895 -0.009889393)
(-0.009097303 -0.004227802 -0.008711133)
(-0.003158364 -0.002342256 -0.007534907)
(0.001287421 -0.0002278977 -0.006289506)
(0.004148381 0.001953217 -0.005021296)
(0.005505932 0.004017102 -0.00382017)
(0.005490224 0.005796423 -0.002782877)
(0.004349542 0.007119602 -0.002013196)
(0.002464639 0.007844269 -0.001603096)
(0.0003070688 0.007887067 -0.001603198)
(-0.001598535 0.007236233 -0.002020441)
(-0.002748625 0.005973025 -0.002805985)
(-0.00276336 0.004233716 -0.003872666)
(-0.001391794 0.002200101 -0.005114195)
(0.001580829 -8.402942e-07 -0.00642293)
(0.0061471 -0.002122914 -0.007700379)
(0.01229683 -0.004040872 -0.00893593)
(0.02006631 -0.005678079 -0.01018052)
(0.02955902 -0.006991779 -0.0115293)
(0.04103786 -0.007983362 -0.01314043)
(0.05499043 -0.008693907 -0.01525459)
(0.07220352 -0.009200596 -0.01828732)
(0.09508385 -0.009604648 -0.02311499)
(0.1300448 -0.00996816 -0.02954726)
(-0.1221734 -0.007743158 -0.02825035)
(-0.08865281 -0.007334303 -0.0220939)
(-0.0665657 -0.006846167 -0.01744366)
(-0.04984222 -0.006245566 -0.01449689)
(-0.03616311 -0.005453331 -0.01241218)
(-0.0247933 -0.004402834 -0.01078428)
(-0.01529407 -0.003054307 -0.009371873)
(-0.007455301 -0.001400433 -0.008009425)
(-0.001197909 0.0005299097 -0.006573085)
(0.003420898 0.002655954 -0.005017408)
(0.00629257 0.004833162 -0.003434431)
(0.007488493 0.00692262 -0.001915454)
(0.007101809 0.008738654 -0.0005841305)
(0.005403037 0.01008603 0.0004068785)
(0.002829602 0.01081452 0.000922943)
(-7.572588e-05 0.010862 0.0009335924)
(-0.002680767 0.01021513 0.0004276902)
(-0.004400369 0.008934944 -0.0005678861)
(-0.004798477 0.007162507 -0.001923583)
(-0.003588499 0.00509228 -0.003484649)
(-0.0006335236 0.002918214 -0.005119848)
(0.004128934 0.0007745952 -0.006715118)
(0.01058487 -0.001182622 -0.008203989)
(0.01871969 -0.002870297 -0.009636559)
(0.02860082 -0.004256444 -0.01112276)
(0.04045165 -0.005344563 -0.01282975)
(0.05472535 -0.006172231 -0.01500433)
(0.07218013 -0.00680444 -0.01806741)
(0.09520744 -0.007319473 -0.02289968)
(0.1301665 -0.007748002 -0.02929714)
(-0.1221472 -0.005777989 -0.02806454)
(-0.08863325 -0.005380095 -0.0219429)
(-0.06642317 -0.004884631 -0.01728856)
(-0.04949959 -0.004278592 -0.01431388)
(-0.03555194 -0.003501124 -0.01217334)
(-0.02386638 -0.002498468 -0.01045538)
(-0.01403175 -0.001235704 -0.008911378)
(-0.005872098 0.0002968644 -0.007361907)
(0.0006855106 0.002079096 -0.005662201)
(0.005436627 0.004020473 -0.003817825)
(0.008342826 0.00603211 -0.001917574)
(0.009386529 0.007966193 -7.209096e-05)
(0.008631599 0.009620914 0.00151842)
(0.006394713 0.01084777 0.002741502)
(0.003176522 0.01151969 0.003415034)
(-0.0004320217 0.01156602 0.003437528)
(-0.003692157 0.01097285 0.002790807)
(-0.005962162 0.009810648 0.001572741)
(-0.006745204 0.008200202 -3.536439e-05)
(-0.005690217 0.006285152 -0.001923205)
(-0.002738615 0.004280263 -0.003881379)
(0.00220868 0.002301286 -0.005787962)
(0.008935761 0.0005107346 -0.007526991)
(0.0173992 -0.001054683 -0.009151441)
(0.02762245 -0.002353795 -0.0107737)
(0.03979723 -0.003392491 -0.012574)
(0.05434866 -0.00420354 -0.01480761)
(0.07201417 -0.004839453 -0.01790178)
(0.09517793 -0.005357094 -0.02274251)
(0.1301532 -0.005766364 -0.02911628)
(-0.1220797 -0.003990626 -0.02794668)
(-0.08854619 -0.003664056 -0.02183752)
(-0.06622971 -0.003246378 -0.01717599)
(-0.04914427 -0.002735353 -0.01417605)
(-0.03498085 -0.002088239 -0.01198625)
(-0.0230403 -0.001264285 -0.01018945)
(-0.01293249 -0.000237207 -0.008528765)
(-0.004509693 0.0009993057 -0.0068152)
(0.002308108 0.002456508 -0.004884711)
(0.007169525 0.00402129 -0.002784606)
(0.01010959 0.005651075 -0.0005970531)
(0.01100045 0.00720813 0.001506816)
(0.009938378 0.008546497 0.003392818)
(0.007252974 0.009546628 0.004835648)
(0.003478841 0.01009712 0.005642742)
(-0.0007420924 0.01013629 0.00567625)
(-0.004567331 0.009651563 0.004911633)
(-0.007294104 0.008704822 0.003483165)
(-0.008395839 0.007402468 0.001584467)
(-0.007506614 0.005862537 -0.0005599787)
(-0.004522704 0.004229602 -0.002812149)
(0.0005357291 0.002635042 -0.004984903)
(0.007517116 0.00117765 -0.006956355)
(0.0162466 -9.041454e-05 -0.008749085)
(0.02675033 -0.001150046 -0.01049276)
(0.03918752 -0.00200488 -0.01237584)
(0.05396255 -0.002680804 -0.01466266)
(0.07180024 -0.003215994 -0.01779018)
(0.0950851 -0.003648849 -0.0226428)
(0.1300967 -0.003976341 -0.0290056)
(-0.121975 -0.002335537 -0.02785686)
(-0.08844964 -0.002123823 -0.02176866)
(-0.06605807 -0.001847028 -0.01710283)
(-0.04885866 -0.001508451 -0.01408356)
(-0.03454322 -0.001082045 -0.01185666)
(-0.02242247 -0.0005424809 -0.01000049)
(-0.01212192 0.0001279065 -0.008252471)
(-0.0035066 0.0009318916 -0.006416477)
(0.003501099 0.001882408 -0.004315736)
(0.00844142 0.002902997 -0.00202174)
(0.01140376 0.003969182 0.000380973)
(0.01218099 0.00497693 0.002712523)
(0.01090111 0.005855089 0.004815384)
(0.007885152 0.00651177 0.006432016)
(0.003702163 0.006874357 0.00734493)
(-0.0009732428 0.006900461 0.007387337)
(-0.005213989 0.006581243 0.006529497)
(-0.008277309 0.005959046 0.004934172)
(-0.009603597 0.005103359 0.002821599)
(-0.008838306 0.004106349 0.0004487653)
(-0.005834723 0.003035535 -0.002021275)
(-0.0006965215 0.001997183 -0.004393849)
(0.006475662 0.001042286 -0.006543854)
(0.01539343 0.0002144264 -0.008460714)
(0.02609667 -0.0004781466 -0.01029677)
(0.03871996 -0.001039041 -0.01224335)
(0.05365374 -0.001484976 -0.01457319)
(0.0716153 -0.001838809 -0.01772459)
(0.0949924 -0.00212312 -0.02258701)
(0.1300358 -0.002330165 -0.02894573)
(-0.121914 -0.0007656741 -0.02781902)
(-0.08839358 -0.0006936612 -0.02173775)
(-0.06596029 -0.0005976085 -0.01706874)
(-0.04870174 -0.0004799187 -0.01403838)
(-0.03430748 -0.000332181 -0.01179081)
(-0.02209239 -0.0001453399 -0.009902207)
(-0.01169018 8.666883e-05 -0.008107529)
(-0.002968436 0.0003669235 -0.006204264)
(0.004113495 0.0006923502 -0.004012595)
(0.009118963 0.00105213 -0.001615791)
(0.01208028 0.001427282 0.0008855167)
(0.01280401 0.001782105 0.003366737)
(0.01141123 0.002093429 0.005597283)
(0.008220599 0.002327468 0.007316222)
(0.003820316 0.00245682 0.008292364)
(-0.001098066 0.002465434 0.008340054)
(-0.005559653 0.002349935 0.00742634)
(-0.008800762 0.002126396 0.005732509)
(-0.01024326 0.001821117 0.003493535)
(-0.009535737 0.001468239 0.0009698203)
(-0.006532852 0.001089872 -0.001600145)
(-0.001350284 0.0007253573 -0.004079662)
(0.005923675 0.0003902204 -0.006327414)
(0.01494076 0.0001006601 -0.00830913)
(0.02574769 -0.0001405616 -0.01019432)
(0.03846791 -0.0003363061 -0.01217554)
(0.05348454 -0.0004919944 -0.01452843)
(0.0715114 -0.0006149792 -0.01769333)
(0.09493985 -0.0007121867 -0.0225621)
(0.1299941 -0.0007791895 -0.02892086)
(-0.1219144 0.0007789842 -0.02781784)
(-0.08839463 0.0007056333 -0.02173728)
(-0.06596184 0.0006062146 -0.0170686)
(-0.04870351 0.0004843247 -0.01403849)
(-0.03430934 0.0003321175 -0.01179104)
(-0.02209427 0.0001407358 -0.00990259)
(-0.01169203 -9.57984e-05 -0.008107946)
(-0.002970208 -0.0003805778 -0.006204781)
(0.004111988 -0.0007098263 -0.004013087)
(0.009117703 -0.001072683 -0.001616227)
(0.01207921 -0.001450659 0.0008852852)
(0.01280305 -0.001808294 0.003366591)
(0.01141033 -0.002122418 0.005597289)
(0.008219696 -0.002359258 0.007316315)
(0.003819294 -0.002491522 0.008292525)
(-0.001099288 -0.002503084 0.008340136)
(-0.005561004 -0.002390388 0.007426238)
(-0.008802174 -0.002169572 0.005732196)
(-0.01024466 -0.001866811 0.003493037)
(-0.009537048 -0.001516164 0.0009692412)
(-0.006534073 -0.001139676 -0.001600781)
(-0.001351575 -0.0007768596 -0.00408029)
(0.005922295 -0.0004435412 -0.006328139)
(0.01493943 -0.0001560577 -0.008310091)
(0.02574661 8.336982e-05 -0.01019584)
(0.03846739 0.000278067 -0.01217739)
(0.05348511 0.0004342064 -0.01453068)
(0.07151381 0.0005605877 -0.01769608)
(0.09494521 0.000665626 -0.02256571)
(0.1300038 0.0007457167 -0.02892628)
(-0.1219736 0.002348399 -0.02785226)
(-0.0884522 0.002136057 -0.02176711)
(-0.06606255 0.001855973 -0.01710246)
(-0.04886389 0.00151331 -0.01408381)
(-0.03454873 0.001082562 -0.0118574)
(-0.02242802 0.0005385522 -0.01000154)
(-0.01212739 -0.0001363482 -0.008253827)
(-0.003511911 -0.0009446498 -0.006417944)
(0.003496579 -0.001898978 -0.004317243)
(0.008437642 -0.002922639 -0.002022918)
(0.01140049 -0.003991753 0.0003803938)
(0.01217799 -0.005002617 0.002712218)
(0.01089836 -0.005883872 0.004815403)
(0.007882418 -0.006543567 0.006432376)
(0.003699159 -0.006909167 0.007345458)
(-0.0009767972 -0.006938154 0.007387689)
(-0.005217871 -0.006621521 0.006529325)
(-0.008281357 -0.00600172 0.004933381)
(-0.009607562 -0.00514819 0.002820278)
(-0.008842046 -0.004153025 0.0004471805)
(-0.00583823 -0.003083717 -0.002023056)
(-0.0007002581 -0.00204673 -0.004395744)
(0.006471582 -0.00109324 -0.006546222)
(0.01538939 -0.0002670443 -0.00846418)
(0.02609343 0.0004235979 -0.01030211)
(0.03871831 0.00098344 -0.01224985)
(0.05365526 0.001429455 -0.01458125)
(0.07162242 0.001786322 -0.01773433)
(0.09500895 0.002078123 -0.02259938)
(0.1300682 0.002298906 -0.02896415)
(-0.1220664 0.004007683 -0.02793224)
(-0.08854938 0.003677632 -0.02183446)
(-0.06623712 0.003256202 -0.01717536)
(-0.04915287 0.002741173 -0.01417653)
(-0.03498992 0.002089926 -0.01198735)
(-0.02304953 0.001261761 -0.01019111)
(-0.01294153 0.0002303832 -0.008530791)
(-0.004518186 -0.001010298 -0.006817539)
(0.002300412 -0.002471361 -0.004887113)
(0.0071631 -0.004039504 -0.002786473)
(0.01010373 -0.005672501 -0.0005975814)
(0.01099487 -0.007233237 0.001506194)
(0.009933298 -0.00857517 0.003392426)
(0.007248133 -0.009578669 0.004835597)
(0.0034738 -0.01013236 0.005642926)
(-0.0007477172 -0.01017434 0.005676165)
(-0.004573261 -0.009691862 0.004910842)
(-0.007300109 -0.00874698 0.003481535)
(-0.008401589 -0.007446126 0.001582151)
(-0.00751191 -0.005907241 -0.0005626315)
(-0.004527686 -0.004275115 -0.002815025)
(0.0005304036 -0.002681029 -0.004988058)
(0.007511249 -0.001223879 -0.0069607)
(0.01624017 4.367003e-05 -0.008756285)
(0.02674502 0.001102814 -0.01050386)
(0.03918453 0.00195774 -0.01238957)
(0.05396439 0.002634471 -0.01468142)
(0.07181119 0.003172303 -0.01781235)
(0.09511271 0.003610417 -0.02266909)
(0.1301586 0.003946755 -0.02904236)
(-0.1221586 0.005797514 -0.02806491)
(-0.08864298 0.005394924 -0.02194232)
(-0.06643412 0.004895587 -0.01728862)
(-0.04951148 0.004285756 -0.01431467)
(-0.03556433 0.003504464 -0.01217484)
(-0.02387896 0.002497962 -0.01045747)
(-0.01404416 0.0012313 -0.008914065)
(-0.005883932 -0.0003054099 -0.00736496)
(0.000674566 -0.002091575 -0.005665427)
(0.005427295 -0.004036894 -0.003820168)
(0.008334019 -0.006052438 -0.001917624)
(0.009377907 -0.007990301 -7.311411e-05)
(0.008623855 -0.009648684 0.001516971)
(0.006387574 -0.01087907 0.002740277)
(0.003169509 -0.01155426 0.003413951)
(-0.000439367 -0.01160329 0.00343617)
(-0.00369951 -0.01101206 0.002788747)
(-0.005969299 -0.009851158 0.001569875)
(-0.006751706 -0.00824147 -3.867499e-05)
(-0.005696096 -0.00632665 -0.001926918)
(-0.002743875 -0.004321931 -0.003885174)
(0.002203305 -0.002342476 -0.005791994)
(0.008929637 -0.0005510571 -0.007532221)
(0.01739305 0.001016004 -0.009159546)
(0.02761771 0.002317134 -0.01078543)
(0.03979538 0.003358084 -0.0125884)
(0.05435244 0.004171893 -0.01482716)
(0.07202812 0.004810302 -0.01792496)
(0.09520989 0.00532954 -0.02277008)
(0.1302214 0.005737582 -0.02915458)
(-0.1221854 0.007760738 -0.02824977)
(-0.08866549 0.007349633 -0.02209338)
(-0.06657969 0.006858318 -0.01744388)
(-0.04985711 0.006254334 -0.01449793)
(-0.03617854 0.005458666 -0.0124139)
(-0.02480896 0.004404704 -0.01078671)
(-0.01530966 0.003052631 -0.009374921)
(-0.00747048 0.001394988 -0.008013099)
(-0.001212362 -0.00053937 -0.006577149)
(0.003407823 -0.002669585 -0.005021393)
(0.0062804 -0.004851073 -0.00343762)
(0.007477107 -0.006944267 -0.001918768)
(0.007091486 -0.008764002 -0.0005872218)
(0.00539362 -0.01011498 0.0004040807)
(0.002820726 -0.01084669 0.0009201569)
(-8.440473e-05 -0.01089675 0.0009305574)
(-0.002688915 -0.01025165 0.000424247)
(-0.004407756 -0.008972388 -0.0005719586)
(-0.004804802 -0.007200181 -0.001928138)
(-0.003594081 -0.0051293 -0.00348945)
(-0.0006383901 -0.002955475 -0.00512439)
(0.0041245 -0.0008111138 -0.006719668)
(0.01058072 0.001148103 -0.00820908)
(0.01871612 0.002838385 -0.009642687)
(0.02859913 0.004227716 -0.0111303)
(0.04045336 0.005319072 -0.01283851)
(0.05473269 0.006150119 -0.01501505)
(0.0721963 0.006784407 -0.01808035)
(0.09523715 0.007298935 -0.02291603)
(0.1302176 0.007721804 -0.02932035)
(-0.1220571 0.009943485 -0.02848763)
(-0.08852843 0.009603506 -0.02229461)
(-0.06658009 0.009225049 -0.0176482)
(-0.0500892 0.008746805 -0.01473025)
(-0.03672177 0.008067815 -0.01270465)
(-0.02571535 0.00711055 -0.0111702)
(-0.01659712 0.005831289 -0.009892624)
(-0.009115426 0.004225867 -0.008715002)
(-0.003175931 0.002336685 -0.007539422)
(0.001270783 0.0002182862 -0.006294441)
(0.004132975 -0.00196703 -0.005026356)
(0.005491556 -0.004034414 -0.00382517)
(0.005477257 -0.00581744 -0.002787813)
(0.004337874 -0.007144173 -0.002017958)
(0.002454034 -0.007871969 -0.001607837)
(0.0002972959 -0.007917247 -0.0016081)
(-0.001607176 -0.007268179 -0.002025627)
(-0.00275582 -0.006005953 -0.002811479)
(-0.00276853 -0.00426721 -0.003878371)
(-0.001396923 -0.00223476 -0.005120183)
(0.001576191 -3.248802e-05 -0.006428069)
(0.006144358 0.002091239 -0.007705492)
(0.01229483 0.004010976 -0.008940913)
(0.02006554 0.005650559 -0.01018567)
(0.0295605 0.00696709 -0.01153484)
(0.04104288 0.007961554 -0.01314652)
(0.05500065 0.008674764 -0.0152616)
(0.0722211 0.009183023 -0.01829576)
(0.09511162 0.009586457 -0.0231258)
(0.1300874 0.009945835 -0.02956227)
(-0.1216832 0.01239596 -0.02879912)
(-0.0881261 0.01222377 -0.02256192)
(-0.06632528 0.01208326 -0.01791562)
(-0.05009468 0.01186528 -0.01502526)
(-0.03707642 0.01144304 -0.01305654)
(-0.02647163 0.01072654 -0.01161234)
(-0.01776868 0.009670943 -0.01046142)
(-0.01067244 0.008274575 -0.009453435)
(-0.005043416 0.006582412 -0.008497133)
(-0.0008165107 0.004681682 -0.007542947)
(0.002029954 0.002697888 -0.006586744)
(0.00355927 0.0007806236 -0.00568093)
(0.003919599 -0.0008866984 -0.004904528)
(0.003327502 -0.002126243 -0.004335166)
(0.002108517 -0.002802296 -0.004036335)
(0.0006661634 -0.00283916 -0.004046295)
(-0.0005643874 -0.002227088 -0.004367093)
(-0.001157811 -0.001040149 -0.004961827)
(-0.0007958155 0.0005909161 -0.005770294)
(0.0007886071 0.002503127 -0.006710135)
(0.003724007 0.004490761 -0.007694344)
(0.008085364 0.006408947 -0.008693818)
(0.01392195 0.008130393 -0.009709071)
(0.02130128 0.009561099 -0.01078153)
(0.03037327 0.01065319 -0.01200088)
(0.04144404 0.01140456 -0.01352027)
(0.05504163 0.01185819 -0.01557608)
(0.07199059 0.0121029 -0.01858136)
(0.09472343 0.01226695 -0.02340926)
(0.1297213 0.01245957 -0.02989024)
(-0.1209373 0.01517664 -0.02921078)
(-0.08732817 0.01529675 -0.02291969)
(-0.0656883 0.01554297 -0.01827294)
(-0.04975303 0.01573526 -0.01540903)
(-0.03712553 0.01571252 -0.01349571)
(-0.02696138 0.01537353 -0.01213492)
(-0.01870356 0.01467313 -0.01109856)
(-0.01201389 0.01361568 -0.0102382)
(-0.006707569 0.01224981 -0.009466275)
(-0.002684839 0.0106671 -0.008736506)
(0.0001303202 0.008989091 -0.008033602)
(0.001807235 0.007370268 -0.00738379)
(0.002492692 0.005970735 -0.006839644)
(0.002395768 0.004934265 -0.006449415)
(0.001792884 0.004373586 -0.006251751)
(0.001014054 0.004351494 -0.006267966)
(0.000409794 0.004872333 -0.006497932)
(0.000317469 0.005879251 -0.006919507)
(0.001023856 0.007263502 -0.00749355)
(0.002755708 0.008886203 -0.008170754)
(0.005658635 0.01057515 -0.008910938)
(0.009823815 0.01218365 -0.009692453)
(0.01533466 0.0135818 -0.01052313)
(0.02230172 0.01467518 -0.01144609)
(0.03091964 0.01541116 -0.01254971)
(0.04153874 0.01578248 -0.01398391)
(0.05473326 0.01583184 -0.01598371)
(0.07137536 0.01566062 -0.01896108)
(0.09393738 0.0154315 -0.02378903)
(0.1289831 0.01532758 -0.03032537)
(-0.1196494 0.01837152 -0.02976043)
(-0.0859716 0.0189497 -0.0234087)
(-0.06452403 0.01976627 -0.01876374)
(-0.04893873 0.02053535 -0.01592962)
(-0.03676039 0.02105581 -0.01407012)
(-0.02708578 0.02121628 -0.01278673)
(-0.01930847 0.02097759 -0.01184969)
(-0.01304661 0.02035329 -0.01111351)
(-0.008076433 0.01940027 -0.01049012)
(-0.00426164 0.01821055 -0.009933125)
(-0.001504124 0.01690506 -0.00942361)
(0.0002979516 0.01561651 -0.008964598)
(0.001271027 0.01449203 -0.008582613)
(0.001605819 0.01365774 -0.008312644)
(0.001532744 0.01321068 -0.008180599)
(0.001320743 0.01320444 -0.008198901)
(0.001252165 0.013642 -0.008366117)
(0.001600362 0.01447455 -0.008668234)
(0.00260541 0.01560784 -0.009080946)
(0.004462223 0.01691644 -0.009576368)
(0.007314144 0.01825229 -0.01013336)
(0.01127105 0.01947813 -0.010745)
(0.01644236 0.02047102 -0.01142714)
(0.02297436 0.02113533 -0.01222615)
(0.03110138 0.02141083 -0.01322964)
(0.04121767 0.02128043 -0.01458667)
(0.05394879 0.02078159 -0.01653196)
(0.07022717 0.02002496 -0.01948049)
(0.09258642 0.01921489 -0.02430716)
(0.1276993 0.0186417 -0.03090795)
(-0.1175827 0.02211885 -0.03050809)
(-0.08384812 0.02339179 -0.02409335)
(-0.06266524 0.02501224 -0.01946345)
(-0.04752615 0.02654685 -0.01666716)
(-0.03588706 0.02775058 -0.01486512)
(-0.02677316 0.02851301 -0.01365319)
(-0.01952412 0.02881046 -0.01280215)
(-0.01371922 0.02867532 -0.01216599)
(-0.009101785 0.02817726 -0.01165867)
(-0.005509674 0.02741393 -0.01123081)
(-0.002825104 0.02650167 -0.0108603)
(-0.0009405844 0.02556688 -0.01054183)
(0.000270438 0.02473296 -0.01028225)
(0.0009627352 0.02411283 -0.0100996)
(0.001330878 0.02378584 -0.01001342)
(0.001590873 0.02379839 -0.01003209)
(0.001968018 0.02415245 -0.01015416)
(0.002680746 0.02480609 -0.01037106)
(0.003926491 0.0256785 -0.01066927)
(0.005871515 0.02665995 -0.01103429)
(0.008651262 0.02762273 -0.01145759)
(0.01238382 0.02843896 -0.01194225)
(0.01719691 0.02898945 -0.01251035)
(0.02326286 0.02917337 -0.01321001)
(0.03084842 0.02891702 -0.01412893)
(0.04038807 0.02818496 -0.0154146)
(0.05256189 0.02699778 -0.01730375)
(0.06837677 0.02546553 -0.02021456)
(0.09045687 0.02383539 -0.02502816)
(0.1256223 0.02254836 -0.03169509)
(-0.1143883 0.02666156 -0.03154523)
(-0.0806824 0.02898718 -0.02508372)
(-0.05992141 0.03172017 -0.02049801)
(-0.04539672 0.03423174 -0.01775988)
(-0.03443915 0.03624874 -0.01602225)
(-0.02598834 0.03768511 -0.01487968)
(-0.01933391 0.03855478 -0.01410083)
(-0.01402379 0.03892175 -0.0135435)
(-0.009781283 0.03887824 -0.01312165)
(-0.006428603 0.03853201 -0.01278686)
(-0.003840009 0.03799987 -0.01251269)
(-0.001907087 0.03739982 -0.01228964)
(-0.0005163835 0.03684382 -0.01211663)
(0.0004649018 0.03642547 -0.01199801)