/*--------------------------------*- C++ -*----------------------------------*\
| =========                 |                                                 |
| \\      /  F ield         | OpenFOAM: The Open Source CFD Toolbox           |
|  \\    /   O peration     | Version:  2506                                  |
|   \\  /    A nd           | Website:  www.openfoam.com                      |
|    \\/     M anipulation  |                                                 |
\*---------------------------------------------------------------------------*/
FoamFile
{
    version     2.0;
    format      ascii;
    arch        "LSB;label=32;scalar=64";
    class       volScalarField;
    location    "100/airRegion";
    object      alphat;
}
// * * * * * * * * * * * * * * * * * * * * * * * * * * * * * * * * * * * * * //

dimensions      [1 -1 -1 0 0 0 0];

internalField   nonuniform List<scalar> 
85779
(
0.1066896
0.1071236
0.1068793
0.1065581
0.106087
0.1049601
0.1014074
0.08932488
0.07952793
0.07614313
0.07596588
0.07819017
0.08289235
0.08998252
0.09831416
0.1050597
0.1057264
0.09680679
0.08319181
0.07298804
0.07029959
0.07485538
0.08869021
0.1016004
0.1048482
0.1055399
0.1051672
0.102252
0.08607321
0.02337888
0.1068144
0.1073849
0.1069072
0.1061586
0.1050369
0.1026294
0.09661693
0.08720267
0.08129411
0.07845489
0.07796408
0.07971007
0.08389814
0.09048233
0.09841411
0.1050191
0.1059411
0.09754037
0.08409142
0.07351024
0.07031959
0.07406166
0.0835832
0.09734407
0.1020229
0.1031486
0.1023961
0.09798642
0.07981529
0.0219603
0.1066114
0.1068637
0.1061134
0.105063
0.1034985
0.1000293
0.09225371
0.08616556
0.08217042
0.08006006
0.07965339
0.08110846
0.08474311
0.09061558
0.09788713
0.1041885
0.1054185
0.09774104
0.08451914
0.07321478
0.06876143
0.07103622
0.07907426
0.09416025
0.09934353
0.1006902
0.1000506
0.09600835
0.07944836
0.02219898
0.1065593
0.1065848
0.1056197
0.1043478
0.1024586
0.09831287
0.08942721
0.08470767
0.08194051
0.08052585
0.08039537
0.0817802
0.08502097
0.09023823
0.09680385
0.1027236
0.1042476
0.09733599
0.08432146
0.07215226
0.06630808
0.06728222
0.07468227
0.09152516
0.09742764
0.09915396
0.09885611
0.09547391
0.08027431
0.02239329
0.1065758
0.1064953
0.1053947
0.1039424
0.101707
0.09692719
0.08765203
0.0834391
0.08126272
0.08030606
0.08043482
0.08182783
0.08477268
0.0893897
0.09521827
0.1006697
0.1024357
0.09630213
0.08354613
0.0706256
0.06368903
0.06381124
0.07050562
0.08809135
0.09577494
0.09825368
0.09837277
0.09551688
0.08114663
0.02252547
0.1066028
0.1064755
0.1052904
0.1036863
0.1010636
0.09540241
0.08662385
0.08268334
0.08074433
0.07998976
0.08023032
0.08157023
0.08420759
0.08820429
0.0932122
0.09807106
0.1000124
0.09468643
0.08229989
0.06881376
0.06114037
0.06100902
0.066993
0.08136195
0.09387907
0.09764145
0.09818686
0.0956735
0.08164383
0.02261242
0.106622
0.1064704
0.1052297
0.1035117
0.1006008
0.09428619
0.08558451
0.08202679
0.08036619
0.07975423
0.0800136
0.08122384
0.08350028
0.08680793
0.0908656
0.09498112
0.09704526
0.09258733
0.08070978
0.06674666
0.05826005
0.05781818
0.06377993
0.07520475
0.09247253
0.09724677
0.09809618
0.09579199
0.0818821
0.02266549
0.1066315
0.1064625
0.1051754
0.1033343
0.1000474
0.09283529
0.08496837
0.08189076
0.08035654
0.07972096
0.07987795
0.08088459
0.08274875
0.08529012
0.08825399
0.09148064
0.093662
0.09016964
0.07900839
0.06478355
0.05549879
0.05459136
0.0606277
0.07246816
0.09166318
0.0969236
0.09799304
0.09583393
0.08199646
0.02269378
0.1066337
0.1064499
0.1051219
0.1031451
0.09923396
0.09057449
0.08532574
0.08232274
0.08059924
0.07977885
0.07977007
0.08055738
0.08199985
0.08372817
0.08548464
0.08772511
0.09008839
0.08766778
0.07743837
0.06324297
0.05325276
0.05170861
0.05761084
0.06998827
0.09067624
0.09648194
0.09781296
0.09578868
0.08201876
0.02270459
0.1066317
0.1064363
0.105083
0.1030365
0.09889204
0.08965161
0.08488787
0.08213506
0.08048464
0.07965968
0.07959731
0.08023495
0.08129916
0.08222997
0.08275526
0.08401355
0.08668428
0.08539356
0.0762341
0.06233663
0.05176914
0.04939012
0.05465645
0.06688143
0.0887916
0.09570466
0.09750748
0.09565904
0.08197176
0.02270328
0.1066276
0.1064233
0.105055
0.1029753
0.09874465
0.08924321
0.08450396
0.0818405
0.08026565
0.07948664
0.079423
0.07996136
0.08071406
0.08095304
0.08038901
0.08082006
0.08391247
0.08369293
0.07558285
0.0620947
0.05107967
0.04790459
0.05228971
0.06314022
0.08415976
0.09424173
0.09704412
0.09546076
0.08187768
0.02269425
0.106623
0.1064116
0.1050336
0.1029359
0.09866656
0.08903385
0.0842553
0.0816158
0.08008825
0.07934989
0.07929334
0.07976527
0.08030091
0.08006126
0.078752
0.07865733
0.08217314
0.08284655
0.07561919
0.06237983
0.05070307
0.04659146
0.05024378
0.05982352
0.0744747
0.09232317
0.09655642
0.09524224
0.08175872
0.02268058
0.106619
0.1064022
0.1050175
0.1029082
0.09861685
0.08890277
0.08409255
0.081466
0.07997075
0.07925967
0.0792077
0.07964531
0.08008215
0.07964388
0.07804561
0.07779134
0.08163525
0.08299379
0.07647304
0.06331451
0.05071433
0.0453761
0.04815874
0.05718587
0.07133975
0.09147941
0.09622477
0.09504312
0.08163534
0.02266534
0.1066161
0.1063956
0.1050067
0.1028901
0.09858534
0.08881987
0.0839911
0.08137401
0.07989779
0.07920012
0.07915155
0.07959367
0.08006763
0.07974592
0.07836491
0.07834635
0.08236962
0.08416506
0.07814838
0.06496683
0.0513585
0.04471685
0.04666551
0.05544835
0.06987781
0.09103508
0.09599127
0.09487927
0.08152818
0.0226517
0.1066148
0.1063926
0.1050017
0.1028818
0.09857065
0.08877978
0.08393918
0.0813228
0.07985139
0.07915708
0.07911808
0.07961356
0.08027689
0.08042284
0.07983412
0.08050007
0.08450777
0.0863539
0.08050267
0.06714201
0.05255515
0.04470612
0.0459109
0.0544894
0.06912257
0.09078355
0.09584804
0.09477555
0.08145927
0.02264286
0.1066153
0.1063935
0.105003
0.1028837
0.09857368
0.08878677
0.08394479
0.08132081
0.07983837
0.07913676
0.07911459
0.07971048
0.08069778
0.08160975
0.08229613
0.08405617
0.0879831
0.08945366
0.08330379
0.06950938
0.05403904
0.0452634
0.04594288
0.05433865
0.06897199
0.09072631
0.09581854
0.09475689
0.08144715
0.02264141
0.1066174
0.106398
0.1050102
0.1028956
0.09859386
0.0888393
0.08400608
0.08136716
0.07986015
0.07914334
0.07914469
0.07987171
0.08125316
0.0830594
0.08519813
0.08824153
0.09219364
0.09302803
0.08620604
0.07175682
0.05556719
0.0462689
0.04672658
0.05498723
0.06941364
0.09087229
0.09590782
0.09482677
0.08149438
0.02264761
0.1066209
0.1064059
0.105023
0.1029166
0.09862991
0.08893202
0.0841144
0.08145572
0.07991674
0.07918172
0.07921218
0.08008392
0.08186969
0.08454559
0.08804649
0.0923255
0.09643977
0.09658243
0.0888639
0.07363335
0.05698407
0.04761289
0.04814476
0.05632699
0.07038583
0.09117934
0.09608888
0.09496274
0.08158439
0.02265907
0.1066255
0.1064163
0.1050405
0.1029468
0.09868557
0.08907813
0.08428794
0.08161062
0.08003527
0.0792764
0.079333
0.08034583
0.0825093
0.08595705
0.09061986
0.09596127
0.100286
0.0997513
0.09104389
0.07502666
0.05821461
0.04919155
0.05008116
0.05832914
0.07203763
0.09166761
0.0963391
0.09513564
0.08169547
0.02267276
0.1066304
0.1064285
0.1050631
0.1029913
0.0987851
0.0893507
0.08455949
0.0818408
0.08021965
0.07943234
0.07951199
0.08065758
0.08316201
0.08727091
0.09288474
0.0990785
0.1035667
0.1023411
0.09259366
0.07583461
0.05913892
0.05080825
0.05234513
0.06114521
0.07551442
0.09259922
0.09667991
0.095325
0.08180644
0.02268556
0.1066345
0.1064419
0.1050936
0.1030699
0.09902764
0.08999491
0.08491857
0.08207487
0.08041115
0.07961314
0.07973006
0.0810105
0.08382713
0.08850229
0.09488525
0.1017287
0.106269
0.104282
0.0934308
0.07595663
0.05953308
0.05200017
0.05423129
0.06445567
0.08572821
0.09467406
0.09717528
0.09551858
0.08189798
0.02269434
0.1066364
0.1064557
0.1051372
0.1032204
0.09960538
0.09104033
0.08475533
0.0818995
0.08038524
0.07969912
0.07992461
0.08137418
0.08449641
0.08966978
0.09667829
0.1039929
0.1084439
0.1055926
0.09360684
0.07556847
0.0597422
0.05334424
0.05665243
0.0680674
0.08938883
0.09592566
0.09757828
0.09566783
0.08194801
0.02269572
0.1066339
0.1064677
0.105187
0.1033741
0.1000712
0.09219496
0.08518718
0.08183189
0.08024773
0.07967047
0.08005804
0.08171908
0.08515475
0.09078143
0.09830595
0.105941
0.1101595
0.1063602
0.09334149
0.07518006
0.06052883
0.05552628
0.05961229
0.07101367
0.09097615
0.09659317
0.09782502
0.09573313
0.08193199
0.02268548
0.1066241
0.106475
0.1052395
0.1035377
0.1005488
0.09339403
0.08586551
0.08205149
0.08029852
0.07972958
0.08022005
0.0820656
0.08579483
0.09183258
0.09978575
0.1076158
0.111474
0.1066898
0.09285523
0.07508794
0.0619966
0.0582885
0.06266673
0.07341739
0.09187656
0.09699039
0.09796111
0.09570578
0.08182513
0.02265823
0.1066045
0.1064795
0.1053015
0.1037291
0.1012057
0.09562272
0.08660578
0.08254357
0.0806344
0.07997589
0.08046186
0.08241412
0.08638811
0.09279231
0.1011038
0.1090268
0.1124209
0.106664
0.09228721
0.07537108
0.06404133
0.06148727
0.06592872
0.07586249
0.09263256
0.09732401
0.09805654
0.09559558
0.08159318
0.02260657
0.1065771
0.1064984
0.1054045
0.1039886
0.1018857
0.09731843
0.08762665
0.08330456
0.08118202
0.08032524
0.080692
0.08266668
0.0868401
0.09358328
0.1022088
0.1101506
0.1130052
0.1063143
0.09163829
0.07586625
0.06634754
0.06489977
0.06959982
0.07926403
0.09371743
0.09780609
0.09822977
0.09544082
0.08108604
0.02252136
0.1065602
0.1065868
0.1056248
0.1043684
0.1025403
0.09854365
0.08963553
0.08468125
0.08187771
0.08054138
0.08064719
0.08259366
0.08697293
0.09407887
0.1030179
0.1109411
0.1132113
0.1056185
0.09077012
0.07618918
0.06831881
0.0678372
0.07317438
0.08465647
0.09574376
0.09874183
0.0987198
0.09540324
0.08021845
0.02239065
0.106612
0.1068651
0.1061165
0.1050739
0.1035498
0.1002412
0.09240253
0.0858549
0.08194059
0.08000792
0.0798775
0.08188821
0.08658715
0.09415029
0.1034478
0.1113533
0.1130325
0.104562
0.08957002
0.07614509
0.06997357
0.07089819
0.07744415
0.09197806
0.09850075
0.1004084
0.09994122
0.0959489
0.0794048
0.02219747
0.1068147
0.1073857
0.1069087
0.1061626
0.1050593
0.1027671
0.09715699
0.08721884
0.08128796
0.07852814
0.0782459
0.0804969
0.08566845
0.09377698
0.1034617
0.1113645
0.1125037
0.1032233
0.08806323
0.07559833
0.07093851
0.07341931
0.08155627
0.0962726
0.1016031
0.1029904
0.1023269
0.09794557
0.07978536
0.02195954
0.1066897
0.1071239
0.1068797
0.1065589
0.1060893
0.1049752
0.1016201
0.09140532
0.07941818
0.07626884
0.07629814
0.07899525
0.08462029
0.09312205
0.1030383
0.1109019
0.1116507
0.1018094
0.0865734
0.07481032
0.07113843
0.07459427
0.08394691
0.1005416
0.1046324
0.1054777
0.1051421
0.1022372
0.08606167
0.0233788
0.1068145
0.1073823
0.1069022
0.106162
0.1051076
0.1030019
0.09777637
0.08715503
0.08090313
0.07803365
0.07757677
0.07937359
0.08362654
0.09030023
0.09834881
0.1050737
0.1060842
0.09764757
0.08407098
0.07346671
0.07045515
0.07443099
0.08398651
0.09746805
0.1020425
0.1031272
0.1023874
0.09803223
0.07995545
0.02197753
0.1061561
0.1077009
0.1079406
0.1069514
0.1049473
0.1014207
0.09546911
0.08855486
0.08337039
0.08038917
0.07950353
0.08080697
0.08454933
0.09072332
0.09837577
0.1049639
0.1062518
0.09842737
0.08517318
0.07426881
0.07071301
0.07406482
0.08203432
0.09154691
0.09684588
0.09818958
0.0959057
0.08718817
0.06354584
0.0166462
0.1052669
0.1061815
0.1065121
0.1055558
0.1033401
0.09948872
0.094328
0.08902426
0.0848423
0.08218622
0.08120349
0.08213475
0.08529329
0.09074958
0.09774015
0.1040237
0.1056446
0.09866879
0.0858787
0.07445868
0.06974815
0.07175559
0.07817193
0.08629663
0.09140751
0.0926691
0.08996013
0.08073578
0.05817116
0.01593873
0.1048948
0.1051044
0.1049576
0.1036908
0.1012333
0.09718161
0.09244143
0.08817733
0.0848752
0.08273431
0.0819297
0.08273486
0.0854728
0.09026211
0.09653313
0.1024218
0.1043566
0.09827551
0.08593104
0.07380918
0.067651
0.06816643
0.07334993
0.08098221
0.08636545
0.08809392
0.0860464
0.07804209
0.05752806
0.01633831
0.1047947
0.1046349
0.1040739
0.1024434
0.09969963
0.09549506
0.09080816
0.08697563
0.08418905
0.08246417
0.0818928
0.08269076
0.08512477
0.0893011
0.09480594
0.1001963
0.1023865
0.09720609
0.08533027
0.07251841
0.06498044
0.06428534
0.0686934
0.07624276
0.08252282
0.08523386
0.08423998
0.07760569
0.05854157
0.01674303
0.1047835
0.1044627
0.1036509
0.1017423
0.09871206
0.09436819
0.08969578
0.08602672
0.08347725
0.08197817
0.08154549
0.08231387
0.08445214
0.08799235
0.09262583
0.09737328
0.09975123
0.09550229
0.08420065
0.07085063
0.06213581
0.06059519
0.06465903
0.07211315
0.07968043
0.08359609
0.08359583
0.07796948
0.05968052
0.01701334
0.1047887
0.1043938
0.1034368
0.1013346
0.09802523
0.09342898
0.08877856
0.08527831
0.08290879
0.0815426
0.08116027
0.08183706
0.08363159
0.08645219
0.09005067
0.09397961
0.09650371
0.09326069
0.08270449
0.06902513
0.05924395
0.05691509
0.06084349
0.06862644
0.07759481
0.08256155
0.08332992
0.07836821
0.06047757
0.01717347
0.1047895
0.1043493
0.1032964
0.1010454
0.09746824
0.09270931
0.08821478
0.08487272
0.08259417
0.0812588
0.08084368
0.08137045
0.08276532
0.08476058
0.08712967
0.09006536
0.09276114
0.09064138
0.08104842
0.06734711
0.0566885
0.05357154
0.05735896
0.06567401
0.07576918
0.08162477
0.08301291
0.07852173
0.0608882
0.01725568
0.1047832
0.1043072
0.1031839
0.1008126
0.09697566
0.09221894
0.08797775
0.08471894
0.08243503
0.08106299
0.08058007
0.08093954
0.08190687
0.08298983
0.08395056
0.08576786
0.08875993
0.08789191
0.07945572
0.06605631
0.05473973
0.05075529
0.05413154
0.06270302
0.07366129
0.08045593
0.08245152
0.07836258
0.06095865
0.01728366
0.1047728
0.1042671
0.1030967
0.1006501
0.09664587
0.09172426
0.08756796
0.08440864
0.08218368
0.08083499
0.08032908
0.08055258
0.08110803
0.08125741
0.08072679
0.08141893
0.08491434
0.08536583
0.07817362
0.06531807
0.05355305
0.04861911
0.05120627
0.05948875
0.07091491
0.07884001
0.08157553
0.07791106
0.06075893
0.01727407
0.1047607
0.10423
0.103028
0.1005394
0.0964417
0.09140651
0.08723277
0.08411064
0.08193512
0.08062481
0.08011871
0.08023849
0.08044044
0.07975975
0.07787697
0.07762725
0.0817881
0.08346765
0.07743938
0.065187
0.05308654
0.04720731
0.04882806
0.05631793
0.06742399
0.0767101
0.0804232
0.0772424
0.06037319
0.01724045
0.104749
0.104197
0.1029722
0.1004585
0.09630491
0.0912028
0.08700063
0.08389053
0.08174731
0.0804675
0.07996461
0.08001303
0.07996948
0.0787189
0.07592034
0.0750887
0.07984788
0.08250023
0.07743591
0.06566009
0.05309592
0.04612113
0.04668801
0.05337131
0.06382858
0.07453386
0.07922478
0.07648318
0.05988884
0.01719272
0.104739
0.10417
0.1029279
0.1003975
0.09620783
0.0910649
0.08684417
0.08374174
0.08161949
0.08035807
0.07985641
0.07986985
0.07971923
0.07823709
0.07508476
0.07407039
0.07921103
0.08256436
0.0782629
0.06683017
0.053665
0.04543811
0.04487137
0.05089763
0.06126084
0.07276929
0.0781521
0.07573469
0.05938246
0.01714045
0.1047321
0.1041513
0.1028975
0.1003561
0.09614414
0.09097723
0.08674647
0.08364866
0.08153636
0.08028117
0.07978036
0.07980172
0.07969972
0.07835515
0.07544357
0.07465461
0.07990716
0.08366758
0.0798933
0.06867153
0.05485275
0.04534822
0.04366619
0.04912396
0.05949077
0.07143239
0.077282
0.07509535
0.05893837
0.01709374
0.104729
0.1041428
0.1028835
0.1003367
0.09611389
0.09093434
0.08669655
0.08359744
0.08148477
0.08022774
0.07973423
0.07981687
0.07994062
0.07915846
0.0771961
0.07712328
0.08214188
0.08584509
0.08221003
0.07096589
0.0564671
0.04580332
0.04315514
0.04812958
0.0584516
0.07060796
0.07673687
0.0746893
0.05865454
0.01706342
0.1047299
0.1041451
0.102887
0.1003411
0.09612036
0.09094178
0.08670121
0.08359439
0.0814704
0.08020464
0.07972777
0.07992413
0.08043281
0.08058914
0.08021599
0.08136546
0.08597997
0.08907304
0.08503748
0.07341169
0.05819316
0.04662714
0.04334324
0.04802867
0.05827747
0.07045908
0.07664205
0.07462459
0.05861406
0.01705873
0.1047348
0.1041579
0.1029075
0.1003686
0.0961623
0.09099781
0.08675882
0.08363913
0.08149546
0.08021726
0.07976574
0.08010769
0.08107566
0.08231139
0.08372252
0.08633492
0.09071999
0.09290509
0.08805307
0.0757211
0.05977863
0.04766078
0.04416727
0.04881257
0.05898145
0.07100695
0.0770131
0.0749141
0.05882581
0.01708058
0.1047432
0.1041801
0.1029429
0.100416
0.09623481
0.0910955
0.08686244
0.08372808
0.08156129
0.08027049
0.07985064
0.08034845
0.08177142
0.08401801
0.08703416
0.09103676
0.09545904
0.09675325
0.0908726
0.07763575
0.06107867
0.04881825
0.04551683
0.05032352
0.06038865
0.07208977
0.07773683
0.07546226
0.05921495
0.01712042
0.1047542
0.1042093
0.1029901
0.1004806
0.09633896
0.09124394
0.08702782
0.08388127
0.08168892
0.08038242
0.07999291
0.0806397
0.08247344
0.08558271
0.08991356
0.09509066
0.09968701
0.1001948
0.09322512
0.07902767
0.06205014
0.05005615
0.04728977
0.05241701
0.06236523
0.07353474
0.0786688
0.07614089
0.0596833
0.01716788
0.1047665
0.1042435
0.1030478
0.1005656
0.09648739
0.09147009
0.08727374
0.08410944
0.08188625
0.08056025
0.08019769
0.08098126
0.08317401
0.08699694
0.09236899
0.09847606
0.1032463
0.1030238
0.09494515
0.07980815
0.06265515
0.05130911
0.04937924
0.05505943
0.06507921
0.07531518
0.07971833
0.07684362
0.06014232
0.01721293
0.1047788
0.1042812
0.1031187
0.1006859
0.09672476
0.09183815
0.08760975
0.08439705
0.08213542
0.0807918
0.08045876
0.0813714
0.08388024
0.08829533
0.09448816
0.1013
0.1061561
0.1051778
0.09595467
0.07992045
0.062822
0.05240438
0.05149504
0.05798407
0.06873166
0.07746335
0.08083733
0.07749164
0.06051834
0.01724585
0.1047892
0.1043215
0.1032093
0.1008636
0.09710581
0.09225997
0.08787339
0.08461625
0.08235186
0.08102568
0.08074745
0.08179696
0.0845958
0.08951397
0.09636003
0.1036842
0.1084952
0.1066791
0.09628306
0.07948278
0.06277387
0.05359644
0.0538619
0.06113166
0.07198712
0.07939776
0.081824
0.07797828
0.06073168
0.01725609
0.104795
0.1043628
0.10332
0.101088
0.09755422
0.09284221
0.08826005
0.08484361
0.08253665
0.08124097
0.0810421
0.08224176
0.0853163
0.09067423
0.09804752
0.1057236
0.1103475
0.1076035
0.09608598
0.07886642
0.06310457
0.05549634
0.05682451
0.06431702
0.07454791
0.08083246
0.08250452
0.07818812
0.06068457
0.0172301
0.1047937
0.104406
0.1034584
0.1013722
0.09809188
0.0935534
0.08884818
0.08527003
0.08286772
0.08154634
0.08138693
0.08271057
0.0860332
0.09177797
0.09958037
0.1074747
0.1117767
0.1080416
0.09555105
0.07838379
0.0640708
0.05810858
0.06015998
0.06735147
0.07660313
0.08191444
0.08290505
0.07807984
0.06029822
0.01715096
0.1047876
0.1044732
0.1036709
0.1017825
0.09878896
0.09441456
0.08966967
0.08597368
0.08343366
0.08200163
0.08179782
0.08318339
0.08671093
0.09279603
0.1009512
0.1089543
0.1128179
0.1080679
0.09482007
0.07818468
0.06568227
0.06134613
0.06389801
0.07054191
0.07861089
0.08297897
0.08321414
0.07771333
0.0595211
0.01699462
0.1047979
0.104643
0.1040902
0.1024788
0.0997573
0.09550946
0.0907741
0.08693982
0.08417143
0.08251387
0.0821655
0.08354792
0.08724876
0.09365145
0.1021127
0.1101427
0.1134769
0.1077161
0.09392459
0.07818744
0.06769521
0.06500869
0.06816593
0.07447085
0.08123953
0.08457246
0.08387018
0.0773678
0.05839279
0.01672832
0.1048971
0.1051103
0.1049685
0.1037135
0.1012801
0.09726932
0.09250813
0.08818336
0.08486473
0.08278265
0.08219827
0.08356259
0.08746557
0.09421855
0.1029839
0.1109958
0.1137402
0.1069763
0.09276833
0.07807344
0.06957548
0.06855152
0.07265177
0.07935197
0.0851918
0.08747516
0.08570248
0.07782391
0.05739433
0.01632722
0.1052685
0.1061858
0.1065201
0.1055714
0.1033742
0.09956726
0.09433076
0.0889459
0.08477481
0.08220196
0.08144975
0.08292323
0.08716367
0.09436925
0.1034817
0.1114685
0.1136034
0.1058439
0.09124024
0.07753138
0.07090171
0.07166286
0.07724966
0.08503222
0.09054817
0.09218689
0.08968071
0.08055389
0.05805904
0.01593061
0.1061571
0.1077036
0.1079453
0.1069598
0.1049655
0.1014725
0.09555532
0.08857289
0.08336986
0.08043891
0.07976005
0.08157534
0.08632505
0.09407643
0.1035632
0.1115345
0.1131027
0.1044111
0.08938649
0.07642009
0.07124701
0.07353572
0.08084592
0.0905789
0.0962945
0.09789051
0.0957308
0.08706988
0.06346822
0.01664096
0.1068149
0.1073831
0.1069036
0.1061645
0.1051121
0.1030104
0.09778904
0.08717397
0.08090081
0.07809733
0.07784444
0.08013428
0.08534092
0.09347853
0.1031856
0.1111057
0.1122588
0.1029049
0.08759456
0.07512131
0.07075808
0.07376256
0.08236629
0.09687765
0.1018178
0.1030239
0.1023313
0.09799464
0.07992701
0.0219765
0.1066118
0.1068625
0.1061141
0.1050892
0.1036582
0.1007275
0.09348921
0.08559317
0.08131659
0.07924642
0.07889562
0.08042067
0.08417682
0.09026145
0.09783731
0.1044591
0.1059298
0.09820174
0.08467054
0.07324687
0.06920976
0.07219206
0.08053956
0.09488467
0.09966401
0.1008272
0.1001578
0.09617974
0.07973748
0.02222308
0.1052705
0.1061893
0.1065224
0.1055751
0.1033979
0.09968882
0.09435781
0.0887711
0.0844909
0.0818061
0.08081827
0.08176949
0.08499091
0.09057513
0.09775695
0.1042429
0.1060139
0.09901796
0.08603678
0.07448809
0.06993347
0.07230489
0.07898666
0.08699028
0.09176872
0.09292412
0.0902302
0.08109843
0.05856874
0.01600625
0.1039146
0.1037394
0.1044532
0.104331
0.102816
0.09968021
0.095308
0.09066549
0.08669462
0.08389022
0.08255446
0.08300464
0.08558494
0.09042723
0.09692643
0.103089
0.105214
0.09923078
0.08704781
0.0753086
0.06974235
0.07083078
0.07590355
0.08184508
0.0855569
0.08583483
0.08166882
0.07058223
0.0482212
0.01324288
0.1033145
0.1020546
0.1020915
0.1018436
0.1005419
0.09786754
0.09426394
0.09045395
0.08707478
0.08456688
0.08326422
0.0835026
0.08561829
0.08976532
0.09550773
0.1012374
0.103689
0.09877046
0.08738331
0.075268
0.06829642
0.06773539
0.07127442
0.07598535
0.0791561
0.07920221
0.07504772
0.06451843
0.04411094
0.01270074
0.1031187
0.1013064
0.1007052
0.09998107
0.09844296
0.09583079
0.09254988
0.08923973
0.08635772
0.08422801
0.08312429
0.08333274
0.08512864
0.08863435
0.09355273
0.09872273
0.1014334
0.09757955
0.08699291
0.07445741
0.06595974
0.06372604
0.06603089
0.07014261
0.07348325
0.07414617
0.07103058
0.06203485
0.04349566
0.01296434
0.1030691
0.1010295
0.1000589
0.09895008
0.09709895
0.09435477
0.0911269
0.08802062
0.0854134
0.08354311
0.08260718
0.08280842
0.08431339
0.08714708
0.09110467
0.09554156
0.09844348
0.0956853
0.08599552
0.07318723
0.06328656
0.05956155
0.06102271
0.06507915
0.06916228
0.07094294
0.06915113
0.06162336
0.04427147
0.01329477
0.1030587
0.1009249
0.09975982
0.09840585
0.09629429
0.09336189
0.09009517
0.08707248
0.08460985
0.082885
0.08203617
0.08218161
0.08334887
0.08540216
0.08818324
0.09167538
0.09474749
0.09317477
0.0845593
0.07176915
0.06072543
0.05567908
0.05651134
0.06082173
0.0658892
0.06890631
0.06829033
0.06185273
0.04515915
0.01351625
0.1030526
0.1008678
0.09958963
0.09807775
0.09576764
0.09268948
0.08939989
0.08642339
0.08403234
0.08237237
0.08154244
0.08157774
0.08233781
0.08345964
0.08478821
0.08711788
0.09044363
0.09020596
0.08287222
0.07046575
0.05864312
0.0524245
0.05261435
0.05712555
0.06307005
0.06722579
0.06757107
0.06193116
0.04567082
0.01362821
0.1030431
0.1008195
0.0994643
0.09784155
0.09538115
0.09220594
0.0889219
0.08597541
0.08361721
0.08198251
0.08114039
0.08103779
0.08133606
0.08137671
0.08096121
0.08196229
0.08578035
0.08705163
0.08115804
0.06946017
0.05723382
0.04995364
0.04929951
0.0536695
0.06018728
0.0653584
0.06654779
0.0615699
0.04571498
0.01365735
0.1030309
0.1007733
0.09936255
0.09766394
0.09510076
0.09182828
0.08852129
0.08559403
0.08326913
0.08166365
0.08081426
0.08057723
0.08040039
0.07928061
0.07692379
0.07657748
0.08125632
0.08413132
0.07970156
0.06889474
0.05656295
0.04832434
0.04659586
0.05037644
0.05704061
0.0630451
0.06507803
0.06074077
0.04534836
0.01362708
0.1030176
0.1007296
0.0992767
0.09752657
0.0948975
0.09155622
0.08821587
0.08529178
0.08299158
0.0814139
0.08056321
0.08021306
0.0796148
0.07743519
0.07326141
0.07181069
0.07760793
0.08193713
0.07880567
0.06887743
0.05657313
0.04745343
0.04452461
0.04737644
0.05373238
0.06023822
0.06323411
0.05955848
0.04469592
0.01355915
0.1030052
0.1006906
0.09920439
0.09741677
0.09474399
0.09135856
0.08799276
0.08506822
0.08278515
0.08122835
0.08037837
0.07995097
0.07906438
0.07617181
0.07080223
0.06871331
0.07540534
0.08079159
0.07868399
0.06949413
0.05717739
0.04714367
0.04292692
0.04471765
0.05058079
0.05739874
0.0612713
0.05820014
0.04388451
0.01346918
0.1029949
0.1006589
0.09914712
0.09733088
0.09462865
0.09121571
0.08783442
0.08490999
0.08263707
0.08109115
0.08024066
0.07977816
0.0787719
0.07559864
0.06977933
0.06748892
0.07464163
0.0807243
0.07939527
0.07079275
0.05839247
0.04741257
0.04187191
0.04257603
0.04791677
0.05488756
0.05937421
0.05682063
0.04303088
0.01337192
0.1029878
0.1006371
0.09910806
0.09727288
0.09455199
0.09112261
0.08773213
0.08480633
0.08253518
0.08098908
0.08013704
0.07968631
0.07874239
0.07573196
0.07017915
0.06808993
0.07525756
0.08170657
0.08089307
0.0726912
0.0601274
0.04822594
0.0414222
0.04108822
0.04589044
0.05285655
0.05775971
0.0556179
0.04227589
0.01328429
0.1029846
0.1006273
0.0990902
0.09724609
0.09451596
0.09107781
0.08768096
0.08475053
0.08247338
0.08091925
0.08007079
0.07969051
0.07902226
0.07671127
0.07234265
0.07098389
0.07757266
0.0838373
0.08310999
0.07499323
0.06211695
0.04936337
0.0415086
0.04034849
0.04470915
0.05160354
0.05673296
0.05484785
0.04179146
0.0132266
0.1029855
0.1006299
0.09909468
0.09725233
0.0945235
0.09108523
0.08768514
0.08474681
0.08245698
0.08089056
0.08005637
0.07980687
0.07961457
0.07852034
0.07628968
0.07632903
0.08192624
0.08723271
0.08595621
0.07746515
0.06404406
0.0505283
0.04198375
0.04040649
0.04458255
0.05142883
0.05658229
0.05474078
0.04172998
0.01321878
0.1029905
0.1006448
0.09912085
0.09729063
0.09457325
0.09114333
0.08774353
0.08479557
0.08248944
0.0809106
0.08010125
0.08001631
0.08038178
0.08066738
0.08079624
0.08257967
0.08747973
0.09144933
0.0891452
0.07985939
0.06567769
0.05153484
0.04273502
0.04121681
0.04551064
0.05236038
0.05734508
0.05532349
0.04210706
0.01326284
0.1029991
0.1006706
0.09916648
0.09735755
0.09466039
0.09124663
0.08785169
0.08489518
0.08257284
0.08098418
0.08020684
0.08029198
0.0811869
0.08270245
0.0848309
0.08824455
0.09296517
0.0957377
0.09222749
0.08189625
0.06687931
0.05234707
0.04372804
0.04265769
0.04727118
0.05411395
0.05875412
0.05638641
0.0427827
0.01333976
0.1030104
0.100705
0.09922796
0.09744861
0.09478259
0.09139765
0.08801699
0.08505636
0.08271904
0.08112167
0.08037754
0.08062105
0.08197327
0.08448605
0.08816461
0.09292487
0.09776123
0.09958869
0.09487274
0.08340443
0.06760831
0.05300422
0.04496752
0.04460689
0.04960799
0.05635397
0.06049331
0.05767046
0.04358465
0.01342976
0.1030235
0.1007454
0.09930248
0.09756134
0.09494133
0.09160379
0.08824798
0.08528719
0.08293571
0.08132983
0.08061731
0.0810026
0.08273851
0.08603996
0.09089409
0.09670337
0.101733
0.1027808
0.0968888
0.08427624
0.06786162
0.05355836
0.0464607
0.04699654
0.05240008
0.05888551
0.06231931
0.05896416
0.04436518
0.01351581
0.103037
0.1007897
0.0993896
0.09770211
0.09515343
0.0918892
0.08856011
0.08559502
0.0832266
0.08161144
0.08092849
0.08144041
0.08350002
0.08743107
0.09318269
0.09978239
0.1049531
0.1052624
0.09819109
0.084462
0.06765343
0.05403889
0.04817812
0.04973316
0.05554841
0.06162128
0.06411003
0.06012055
0.04500613
0.01358287
0.1030492
0.1008359
0.09949226
0.09788382
0.0954447
0.09226601
0.08894727
0.08596855
0.08358166
0.08195983
0.08130744
0.08193544
0.08427442
0.08872052
0.09516939
0.1023474
0.107544
0.1070637
0.09878532
0.08403038
0.06716451
0.05466346
0.05025006
0.05276838
0.05874801
0.06412819
0.06566394
0.06098618
0.04538926
0.0136148
0.1030583
0.1008834
0.09961615
0.09811656
0.09582452
0.09275389
0.08943986
0.08642816
0.08401106
0.08237811
0.08175259
0.08248529
0.08506924
0.08994756
0.09694775
0.1045313
0.1096146
0.1082509
0.09876533
0.08322196
0.06683205
0.0559177
0.05300661
0.0561543
0.06181948
0.06620444
0.06681219
0.06141365
0.0453774
0.01358921
0.1030638
0.1009389
0.09978398
0.09844148
0.09634579
0.09342157
0.09013635
0.08708352
0.0846029
0.08291781
0.08228187
0.08308704
0.08587842
0.09112437
0.09856559
0.1064115
0.1112396
0.1088986
0.09827054
0.08232152
0.0670145
0.05802897
0.05648567
0.05985384
0.06481263
0.06804529
0.0676422
0.061402
0.04490092
0.01348211
0.1030734
0.1010415
0.1000802
0.09898298
0.0971479
0.0943993
0.09115268
0.0880295
0.08541879
0.08360044
0.0828811
0.08370454
0.08666248
0.09222675
0.1000263
0.1080162
0.1124571
0.1090685
0.09742856
0.08152847
0.06784891
0.06099803
0.06070507
0.0640827
0.06816357
0.07016907
0.0685783
0.06122414
0.04404245
0.01326607
0.1031222
0.1013162
0.1007229
0.1000094
0.09848546
0.09586801
0.09257906
0.08926082
0.08637983
0.08430517
0.08341529
0.08421001
0.08731613
0.09318092
0.1012894
0.1093325
0.1132746
0.108794
0.0962922
0.08083974
0.06915318
0.06455736
0.06559894
0.06917194
0.07253628
0.07341526
0.07050341
0.06167011
0.04328647
0.01294078
0.1033173
0.1020626
0.1021058
0.1018665
0.1005783
0.09791731
0.09431052
0.09048152
0.08709636
0.08464254
0.08355073
0.08434553
0.08765534
0.09386438
0.1022791
0.1103206
0.113682
0.1080774
0.09481016
0.08001089
0.07040239
0.06806176
0.07068629
0.07503381
0.07829046
0.07854482
0.07457732
0.06419145
0.04392212
0.01268158
0.1039169
0.103746
0.104465
0.1043495
0.1028438
0.09972327
0.09533844
0.09066694
0.08668823
0.08394097
0.08281659
0.08380092
0.08748288
0.09415067
0.1029132
0.1109361
0.1136783
0.1069313
0.09290675
0.07872338
0.07098261
0.07072197
0.07515657
0.0809474
0.08483748
0.08531202
0.08129887
0.07032062
0.04806503
0.01322824
0.1052722
0.1061937
0.10653
0.1055867
0.1034157
0.09972042
0.09439269
0.08877205
0.0844728
0.08183861
0.08105783
0.08252367
0.08677357
0.09399994
0.1031341
0.1111384
0.1132918
0.1054611
0.09067204
0.07689205
0.07053362
0.07188187
0.07816522
0.08628099
0.09128318
0.09259779
0.09000614
0.08093643
0.05846407
0.01599749
0.1066124
0.1068639
0.1061164
0.1050932
0.1036654
0.1007409
0.09351189
0.08558255
0.08128149
0.0792619
0.07911929
0.08114578
0.08587876
0.09348621
0.1028254
0.1107655
0.1124799
0.1038697
0.08854186
0.07503163
0.06944976
0.0716241
0.07972445
0.09455469
0.09948839
0.1007233
0.1000909
0.09613094
0.07969827
0.02222099
0.1065587
0.1065862
0.1056324
0.1044104
0.1027127
0.0992796
0.09145004
0.08421943
0.08133306
0.07980644
0.07956925
0.08093328
0.0843054
0.08987218
0.09699779
0.1035206
0.1054886
0.09856203
0.08508673
0.07265395
0.06739505