/*--------------------------------*- C++ -*----------------------------------*\
| =========                 |                                                 |
| \\      /  F ield         | OpenFOAM: The Open Source CFD Toolbox           |
|  \\    /   O peration     | Version:  2506                                  |
|   \\  /    A nd           | Website:  www.openfoam.com                      |
|    \\/     M anipulation  |                                                 |
\*---------------------------------------------------------------------------*/
FoamFile
{
    version     2.0;
    format      ascii;
    arch        "LSB;label=32;scalar=64";
    class       volScalarField;
    location    "100/airRegion";
    object      k;
}
// * * * * * * * * * * * * * * * * * * * * * * * * * * * * * * * * * * * * * //

dimensions      [0 2 -2 0 0 0 0];

internalField   nonuniform List<scalar> 
85779
(
0.09243516
0.08938435
0.08849844
0.08812427
0.08778406
0.08685429
0.0829408
0.06164579
0.04232291
0.03245113
0.02688163
0.02358056
0.02176578
0.02100908
0.02091033
0.02104776
0.02107743
0.0209706
0.02141195
0.02358171
0.02885104
0.03945043
0.06263725
0.08343924
0.08697078
0.08778619
0.08803718
0.08786135
0.08608673
0.0725049
0.0902147
0.08495088
0.08297122
0.08194893
0.08092923
0.07848729
0.0695109
0.05028061
0.03836224
0.03097693
0.02626593
0.02330692
0.02164113
0.02094834
0.02087117
0.02100459
0.02099119
0.02075296
0.02092975
0.02264847
0.02709549
0.03553046
0.05021322
0.07390271
0.07912966
0.08070815
0.08124508
0.08097315
0.07859798
0.0639715
0.09018901
0.0843144
0.08182627
0.08039525
0.07884064
0.0748407
0.05650755
0.04397168
0.03541321
0.02958596
0.02561379
0.02299847
0.02145462
0.02074873
0.02059091
0.02063366
0.02053775
0.02018467
0.02013469
0.02142008
0.02514788
0.03246649
0.04568786
0.07059594
0.0764904
0.07849866
0.07935001
0.07943114
0.07784984
0.065368
0.09046361
0.08447999
0.08178383
0.08011229
0.07816116
0.07318637
0.0525049
0.04099738
0.03363012
0.02859107
0.02508267
0.02270898
0.02124536
0.02050109
0.02023722
0.02016426
0.01996977
0.01949938
0.01923148
0.02011695
0.02324905
0.02984223
0.04255099
0.06851857
0.07534264
0.07784848
0.07904165
0.07947889
0.0784328
0.06651497
0.09069684
0.08472648
0.08193772
0.08007954
0.07763252
0.07096102
0.05022507
0.03932451
0.03252108
0.02789436
0.02465783
0.02243457
0.02101128
0.02021182
0.01983116
0.01963206
0.0193312
0.01874427
0.01827785
0.01881216
0.02141822
0.02726667
0.03896444
0.06496127
0.0742714
0.07761271
0.07917149
0.07987256
0.07909713
0.06729836
0.09084973
0.08490566
0.08206186
0.08004054
0.07702923
0.06756944
0.0482961
0.03811005
0.0317159
0.02735835
0.02429678
0.02216668
0.02075518
0.01988915
0.01938594
0.0190553
0.01864422
0.0179461
0.01730899
0.01755142
0.01970592
0.02474794
0.03434684
0.05525586
0.07268149
0.07739999
0.07933969
0.08023142
0.07957768
0.06781264
0.09093896
0.0850098
0.0821237
0.07997893
0.07660185
0.06612661
0.04698799
0.03716629
0.03106393
0.02690913
0.02397501
0.0219056
0.02048798
0.01954794
0.01891783
0.01845171
0.01792897
0.01712975
0.01635557
0.0163722
0.01820453
0.02278501
0.0311497
0.04578352
0.07151381
0.07720431
0.07942775
0.08046256
0.07987174
0.06812508
0.09098672
0.08506066
0.08213277
0.07984286
0.07593552
0.06351724
0.0452726
0.03617281
0.03045635
0.02650943
0.0236848
0.02165834
0.02022423
0.01920582
0.0184447
0.01783944
0.01720626
0.0163221
0.0154488
0.01529591
0.01687908
0.02120412
0.02935041
0.04376348
0.07080554
0.07694733
0.07940024
0.08056066
0.08002111
0.068289
0.09100898
0.085078
0.08210888
0.0796564
0.07488191
0.0548842
0.04279862
0.03514177
0.02990902
0.02616437
0.02343067
0.02143404
0.01997808
0.01888021
0.01798548
0.01723904
0.01650112
0.01555426
0.01462072
0.01434106
0.01568729
0.01972264
0.02765649
0.04210425
0.06977332
0.07651552
0.07924518
0.08054215
0.0800603
0.06834816
0.09101551
0.08507481
0.08207484
0.07953774
0.0744777
0.05349352
0.04188705
0.03457684
0.0295383
0.02589959
0.0232206
0.02124093
0.0197615
0.01858758
0.01756206
0.01667859
0.0158495
0.01486652
0.01390679
0.01352956
0.01462577
0.01824909
0.0256777
0.03969758
0.06774078
0.07575179
0.07895112
0.08042848
0.08001897
0.06833471
0.09101397
0.08506192
0.08203852
0.07945285
0.07426921
0.05308869
0.04150309
0.03426574
0.02929287
0.02570274
0.02305411
0.02108336
0.01958265
0.01834284
0.01720195
0.01619991
0.01530391
0.01431039
0.01334571
0.01288484
0.01371907
0.01681242
0.02327794
0.03551483
0.06182253
0.0742718
0.07850371
0.08024537
0.07992362
0.0682744
0.09100942
0.08504663
0.08200487
0.07938636
0.07412949
0.05288819
0.04128942
0.03406804
0.02912105
0.02555635
0.02292599
0.02096045
0.01944413
0.01815738
0.01693549
0.01585399
0.01492467
0.01393932
0.0129744
0.01243234
0.01302399
0.01564506
0.02119286
0.03085483
0.04705454
0.07239241
0.07803106
0.08003358
0.07979686
0.06818606
0.09100475
0.08503325
0.08197786
0.0793365
0.07403149
0.05275921
0.04114764
0.03393108
0.02899826
0.0254493
0.02283046
0.02086828
0.01934422
0.01803637
0.01678265
0.01567737
0.01475526
0.01378953
0.01281632
0.0121872
0.01256289
0.01484027
0.01995166
0.02900544
0.04431626
0.07161521
0.07768275
0.07982903
0.07966118
0.068088
0.09100142
0.08502409
0.08195994
0.07930431
0.07396971
0.05267733
0.04105616
0.03384161
0.0289171
0.02537711
0.02276428
0.02080438
0.01928184
0.01798241
0.01675323
0.01568685
0.01481175
0.01386972
0.01287262
0.01214589
0.01232165
0.01431964
0.01916251
0.02804545
0.0433607
0.07116439
0.07741774
0.07965575
0.07954145
0.06799958
0.09099994
0.08501998
0.08195185
0.0792899
0.07394255
0.05264071
0.04101437
0.03379959
0.02887735
0.02533959
0.0227279
0.02077036
0.01925996
0.01799941
0.01685116
0.01588311
0.01508368
0.01416101
0.01312281
0.01229158
0.01229061
0.01406622
0.01871685
0.02751003
0.0428703
0.07087627
0.07724793
0.07954441
0.07946412
0.06794186
0.09100067
0.08502147
0.08195429
0.07929392
0.07395009
0.05264916
0.04102279
0.03380616
0.02888051
0.02533866
0.02272426
0.02077054
0.0192828
0.01808548
0.01705633
0.01622054
0.01551013
0.01460767
0.01352193
0.01259194
0.01245544
0.01409015
0.01863732
0.0273829
0.04274539
0.07079688
0.07720792
0.07952191
0.07945018
0.06793278
0.09100353
0.08502841
0.08196697
0.07931579
0.07399132
0.05270128
0.04107984
0.03385993
0.02892578
0.02537453
0.02275459
0.0208063
0.0193484
0.01822654
0.01732855
0.01662849
0.01600049
0.01511716
0.01399926
0.0130001
0.01278509
0.01437509
0.01892038
0.02766423
0.04298515
0.07095247
0.07730569
0.07959217
0.07950206
0.06797397
0.09100808
0.08503999
0.08198878
0.07935433
0.07406527
0.05279632
0.04118343
0.03395831
0.02901122
0.02544634
0.02281884
0.02087725
0.01945299
0.01840854
0.01763413
0.01705508
0.01649663
0.01563063
0.01449545
0.01346308
0.01323869
0.01488095
0.01951699
0.02830563
0.04355221
0.07127195
0.07750966
0.07973277
0.07960167
0.06804886
0.09101379
0.08505534
0.08201887
0.07940949
0.0741751
0.05294232
0.04133784
0.03410279
0.02913781
0.02555521
0.02291799
0.0209833
0.01959386
0.0186239
0.01795947
0.0174826
0.01697861
0.01612553
0.01498575
0.01395543
0.01378752
0.01557794
0.02041318
0.02936039
0.04460812
0.07174677
0.07778555
0.07991169
0.07972365
0.06813739
0.09101895
0.08507168
0.08205414
0.07948066
0.0743356
0.05321657
0.04159279
0.03431686
0.0293159
0.02570577
0.02305399
0.02112472
0.01976968
0.01887
0.0183027
0.01791157
0.01744856
0.01660305
0.01546844
0.0144752
0.01443745
0.01650365
0.02177687
0.03144399
0.04779369
0.07258967
0.07813197
0.08010115
0.07984292
0.06822049
0.09102048
0.08508434
0.08209057
0.07957615
0.07463474
0.05414908
0.04219587
0.03469449
0.02958065
0.02591073
0.02323077
0.02130174
0.01997905
0.01914575
0.01866582
0.01834843
0.01791644
0.0170747
0.01595484
0.01503564
0.01521513
0.01775082
0.02402332
0.03662041
0.06389182
0.07465839
0.07859922
0.08028
0.07993617
0.06827951
0.09101341
0.08508632
0.08212497
0.07973608
0.07539351
0.05848687
0.0439168
0.03544017
0.02999298
0.02618821
0.0234518
0.02151237
0.02021823
0.01944814
0.01904941
0.01879867
0.0183927
0.01755536
0.01646346
0.01565667
0.01612252
0.01919615
0.02634821
0.04030129
0.06823655
0.07589538
0.0789739
0.08040554
0.07997936
0.06829404
0.0909905
0.08506765
0.08214418
0.07988102
0.07596837
0.0604266
0.04538066
0.03631659
0.0305202
0.0265344
0.02371357
0.02175044
0.02047949
0.0197702
0.01944993
0.01926382
0.01888487
0.01805964
0.01701691
0.0163645
0.01715316
0.02068347
0.02829496
0.04251597
0.06993029
0.07653241
0.0791851
0.08043943
0.07994569
0.06823849
0.09094197
0.08501532
0.0821325
0.08000188
0.07652685
0.06240815
0.04687172
0.03726118
0.03111831
0.02693417
0.02400908
0.02200764
0.02075206
0.0201008
0.01985879
0.01973962
0.01939434
0.01859577
0.0176314
0.01717921
0.01831163
0.02220338
0.03000287
0.04408636
0.07083416
0.07687338
0.07924806
0.08035651
0.0798043
0.06808076
0.09085185
0.0849095
0.08206998
0.08008086
0.07723142
0.06829046
0.04877209
0.03829844
0.03178238
0.0273846
0.02433392
0.0222748
0.02102257
0.02042518
0.02026268
0.02021567
0.0199145
0.01916167
0.01831072
0.01810898
0.01961165
0.02382661
0.03174068
0.04559741
0.07141913
0.07704962
0.0791808
0.08013985
0.07951957
0.06777658
0.09069839
0.08472915
0.08194395
0.08012334
0.0778976
0.07226917
0.0508647
0.03953573
0.03258521
0.02791742
0.02469472
0.02254456
0.02127673
0.02072675
0.02064523
0.02067632
0.02043055
0.01974354
0.01904343
0.01914943
0.0210876
0.02574246
0.0340904
0.04822096
0.07209823
0.07717483
0.07902479
0.07979515
0.0790476
0.06727256
0.09046467
0.08448186
0.08178682
0.08012616
0.07824287
0.07352496
0.05300829
0.04121006
0.03369461
0.02861035
0.02511577
0.02281605
0.02150374
0.02099121
0.02099011
0.02110263
0.02092079
0.02031694
0.01980333
0.02028333
0.02279101
0.0282705
0.03831223
0.05614628
0.07354008
0.07746198
0.07891638
0.07941549
0.07839286
0.0664982
0.09018954
0.08431543
0.08182775
0.08040127
0.07888909
0.07514155
0.05816007
0.04450013
0.03552363
0.02960174
0.02563782
0.02309759
0.02170191
0.02121188
0.02128474
0.02147505
0.02135945
0.02085066
0.02055163
0.02146284
0.02465188
0.03114066
0.04314124
0.06762698
0.07561124
0.0782397
0.07925521
0.07938172
0.07781917
0.06535842
0.09021495
0.08495147
0.08297209
0.08195061
0.0809444
0.07865762
0.07121246
0.05060039
0.03833075
0.03093938
0.0262667
0.0233934
0.02187583
0.02138538
0.02151074
0.02175979
0.02170278
0.0212955
0.02122483
0.02259095
0.0265231
0.03411326
0.04763563
0.07279966
0.07874681
0.08057195
0.08118563
0.08093872
0.0785759
0.0639667
0.09243521
0.08938449
0.08849861
0.08812438
0.08778496
0.08686923
0.08319842
0.06696614
0.04237776
0.03236544
0.02685981
0.02365476
0.02198635
0.02142012
0.02150576
0.0217427
0.02171968
0.02143556
0.02162277
0.02342012
0.02798324
0.03656987
0.05208379
0.08234177
0.08678638
0.08773815
0.08801581
0.0878473
0.08607737
0.07250433
0.09021598
0.08495518
0.0829819
0.08197835
0.08105267
0.07914927
0.07313462
0.05155888
0.03875883
0.03109006
0.02627311
0.02326785
0.02157801
0.02087128
0.02078751
0.02092046
0.02091849
0.02071357
0.02095341
0.02277345
0.02735928
0.03593805
0.05071888
0.07446369
0.07940976
0.08088807
0.081382
0.08109165
0.07871842
0.06408142
0.08600367
0.07612538
0.07145031
0.06869292
0.06621442
0.06255274
0.05561312
0.04475133
0.03607881
0.02995039
0.02575468
0.02302454
0.02146141
0.02080705
0.02073556
0.0208593
0.02081868
0.02049516
0.02047663
0.02183268
0.02562495
0.03256965
0.04312844
0.05605201
0.06219004
0.06487878
0.06564681
0.06434131
0.05841002
0.03676423
0.08537431
0.07389195
0.06780501
0.06393464
0.06048312
0.0559498
0.04827018
0.04034309
0.03377144
0.02878978
0.02519041
0.02274783
0.02128146
0.02060022
0.02043923
0.02046889
0.02035079
0.01992366
0.01968295
0.02058125
0.02357641
0.02923793
0.0377839
0.04830217
0.05450762
0.05772852
0.05886112
0.0577448
0.05229674
0.03368956
0.0855128
0.07360529
0.06688504
0.06237356
0.05826802
0.05313663
0.0451008
0.03796003
0.03226562
0.02791847
0.02471489
0.02248153
0.02107734
0.02034565
0.02007011
0.01998105
0.01977007
0.01923776
0.01878636
0.01926471
0.02159276
0.02638058
0.03398876
0.04404034
0.05082124
0.05475094
0.05654789
0.05622261
0.05208166
0.03538927
0.08573306
0.07376999
0.06677755
0.0618741
0.05722749
0.05141992
0.04336934
0.03657713
0.03129291
0.02728681
0.02432224
0.02222158
0.02084535
0.02004787
0.01964674
0.01942819
0.01911686
0.01848093
0.01784228
0.0179643
0.01975043
0.02386791
0.03077883
0.04059312
0.04863235
0.05357386
0.05613186
0.05655275
0.0533242
0.03715477
0.08589403
0.07395467
0.06683017
0.06166426
0.05657638
0.05007764
0.0421602
0.03562413
0.03059226
0.02679576
0.02398143
0.02196129
0.02058735
0.01971351
0.01918032
0.01882618
0.01841092
0.01767737
0.016883
0.0167207
0.0180794
0.02165956
0.02786817
0.03697956
0.04688589
0.05300747
0.05626817
0.05723312
0.0545067
0.03835233
0.08598809
0.07406863
0.06686161
0.0615123
0.05612922
0.0492042
0.04126995
0.03488665
0.03003209
0.02638485
0.02367422
0.02170321
0.02031469
0.019357
0.01868565
0.01819054
0.01767031
0.0168502
0.01593684
0.01556143
0.01659954
0.01982408
0.02568517
0.03446222
0.0455433
0.05256321
0.05638181
0.05773613
0.05529074
0.03906362
0.08603384
0.07411516
0.06683735
0.06132203
0.05564091
0.04814809
0.04034584
0.03420163
0.02953999
0.02602636
0.02339664
0.02145651
0.02004323
0.01899616
0.01817925
0.01753688
0.01691376
0.01602501
0.01503431
0.01451025
0.01529485
0.01823182
0.02390352
0.03270368
0.04417374
0.0519541
0.0562653
0.05793854
0.05568504
0.03942341
0.0860496
0.07411688
0.06677377
0.06110596
0.05511088
0.04675155
0.03939017
0.03357967
0.02911781
0.02572026
0.02315293
0.02123163
0.01978847
0.0186491
0.01767918
0.01688377
0.01616528
0.01523325
0.01420875
0.01359058
0.01415723
0.01678002
0.02217507
0.03089232
0.04257642
0.05103993
0.05586524
0.05785142
0.05576561
0.0395361
0.08604864
0.07409506
0.06670065
0.06093615
0.05479113
0.04617475
0.03886335
0.03316887
0.02880512
0.02547556
0.02294812
0.02103699
0.01956338
0.01833363
0.01720859
0.0162605
0.01546371
0.014519
0.01349906
0.01282675
0.01319504
0.01544863
0.02038384
0.02871761
0.04042839
0.04968684
0.05517906
0.05752478
0.05561158
0.03947686
0.08603976
0.07406344
0.06662838
0.06080118
0.05458527
0.04588568
0.03856313
0.03290026
0.02857815
0.02528534
0.02278271
0.02087721
0.01937692
0.01806743
0.01680178
0.01571904
0.01487175
0.0139417
0.01294884
0.01224188
0.01242526
0.01427918
0.01858271
0.0260552
0.03708883
0.04776964
0.05425247
0.05702945
0.05529969
0.03930735
0.08602857
0.07403081
0.06656269
0.06068943
0.05443434
0.04569965
0.03836464
0.03271167
0.02841039
0.02513967
0.02265335
0.02075153
0.01923217
0.01786593
0.01650136
0.01532867
0.01446303
0.01356226
0.01259698
0.01185414
0.01186702
0.01336585
0.01711545
0.02375718
0.03365888
0.04584373
0.05329134
0.05645821
0.05489824
0.03907262
0.08601843
0.07400296
0.06650887
0.06059825
0.05432096
0.04556715
0.038224
0.03257627
0.02828801
0.02503152
0.02255541
0.02065594
0.01912739
0.01773643
0.01633376
0.01513495
0.01428603
0.01341808
0.01246427
0.01167036
0.01152039
0.01272127
0.01607961
0.02231476
0.03192055
0.04434324
0.0524308
0.05588736
0.05447186
0.03881561
0.0860113
0.07398369
0.0664721
0.06053653
0.05424551
0.04548007
0.038132
0.03248747
0.02820684
0.0249579
0.02248632
0.02058814
0.01906162
0.01768242
0.01631073
0.01515667
0.0143568
0.01351644
0.01254904
0.01168296
0.01137293
0.01231606
0.01536791
0.02134244
0.03081445
0.04322045
0.05172811
0.05539652
0.05409482
0.03858378
0.08600816
0.07397513
0.06645573
0.06050912
0.05421215
0.04544125
0.03809032
0.03244612
0.02816715
0.02491912
0.0224471
0.02055047
0.01903873
0.01770925
0.01643968
0.01539984
0.01466804
0.0138391
0.01283001
0.01187267
0.01141239
0.01214861
0.01497553
0.02077375
0.03016307
0.04253124
0.05128371
0.05508211
0.05385168
0.03843194
0.08600942
0.07397806
0.06646071
0.06051703
0.05422131
0.04545105
0.03809965
0.03245322
0.02817031
0.02491733
0.0224415
0.02054866
0.01906426
0.01781421
0.01669462
0.01580914
0.01515373
0.01432833
0.01326082
0.01220499
0.01161887
0.01222156
0.01493623
0.02066459
0.03002757
0.04239202
0.05119465
0.05502494
0.0538126
0.03840952
0.08601496
0.07399215
0.06648648
0.06055924
0.05427172
0.04550797
0.03815841
0.03250746
0.02821573
0.02495309
0.0224714
0.02058475
0.01913562
0.01797762
0.01701898
0.01628879
0.01570293
0.01487843
0.01376512
0.01263045
0.01195874
0.01251323
0.01524064
0.02101512
0.03040992
0.04279695
0.05147386
0.05523546
0.05398529
0.0385211
0.08602417
0.0740161
0.06653097
0.06063289
0.05436096
0.04560959
0.03826385
0.03260628
0.02830168
0.02502577
0.0225369
0.02065823
0.01924772
0.01818027
0.01736648
0.01677003
0.01624422
0.01542184
0.01427749
0.01309375
0.01239197
0.01298599
0.01583552
0.02175186
0.03122823
0.04366677
0.05203905
0.05564444
0.0543076
0.03872067
0.08603593
0.07404741
0.06659013
0.06073071
0.05448429
0.04575404
0.03841492
0.03274894
0.02842809
0.02513585
0.0226384
0.02076832
0.01939678
0.01841313
0.01772287
0.01723583
0.0167575
0.01593566
0.01477277
0.01356952
0.01289128
0.01360849
0.01667984
0.02282532
0.03242796
0.04486579
0.05277777
0.056156
0.05469709
0.03895535
0.08604811
0.07408204
0.06665884
0.06084714
0.05464615
0.04596398
0.03863039
0.03294605
0.02860019
0.02528572
0.02277668
0.02091444
0.01958083
0.01867381
0.01808889
0.01769141
0.01724875
0.01642391
0.0152511
0.0140568
0.01346007
0.01439379
0.01781682
0.02437923
0.03430195
0.04637264
0.05361184
0.05668538
0.05507758
0.03917778
0.08605732
0.07411435
0.06673288
0.06098998
0.05488435
0.04636672
0.03899318
0.03323809
0.02883578
0.02548228
0.02295349
0.02109579
0.01979812
0.01896199
0.01846943
0.0181476
0.01773176
0.0169011
0.01572634
0.0145711
0.01412285
0.01539262
0.01938563
0.02686036
0.03806604
0.04829581
0.05450481
0.05716546
0.05538302
0.03934423
0.08605805
0.07413581
0.06680787
0.06117836
0.05529406
0.0473724
0.03969507
0.03370154
0.02916422
0.02573514
0.02316986
0.02130961
0.02004474
0.01927546
0.01886733
0.01861307
0.01821963
0.0173842
0.0162194
0.01513861
0.01490746
0.01660126
0.02121636
0.02943708
0.04104815
0.05000536
0.05528355
0.05751358
0.05554494
0.03940742
0.08604156
0.07413253
0.06686827
0.06138154
0.055745
0.04826687
0.04050465
0.03429506
0.02958428
0.02604544
0.02342299
0.02154967
0.02031299
0.01960783
0.01928053
0.01909125
0.01872128
0.01788852
0.01675377
0.01579137
0.01583757
0.01796445
0.0230343
0.03153866
0.04298958
0.0511565
0.05577866
0.05763655
0.05548214
0.0393044
0.08599475
0.07408375
0.06688888
0.06156404
0.05620773
0.04920337
0.04138209
0.03496824
0.03007425
0.02640618
0.02370748
0.02180741
0.02059167
0.01994803
0.01970114
0.01957887
0.01923862
0.0184222
0.017346
0.01655418
0.0169313
0.01946769
0.02482348
0.03332856
0.04445897
0.05189383
0.05596903
0.05747236
0.05511075
0.03895928
0.0858994
0.0739671
0.06685413
0.06171886
0.05670721
0.05038053
0.04236656
0.03572562
0.03063621
0.02681788
0.02401885
0.0220724
0.02086628
0.02028077
0.02011596
0.02006586
0.01976514
0.01898294
0.01800039
0.01743898
0.01820326
0.02114243
0.02670393
0.0350853
0.04575337
0.05239347
0.05590998
0.05700541
0.05435113
0.03826601
0.08573708
0.07377934
0.06679612
0.0619224
0.05737437
0.05181043
0.04359752
0.03667648
0.031332
0.02730659
0.02436057
0.02233522
0.02112124
0.02058881
0.02050844
0.02053665
0.02028607
0.01955702
0.01870659
0.01844269
0.01967239
0.02309122
0.02897207
0.03731726
0.04717371
0.05293924
0.0558089
0.05635608
0.05319114
0.03708753
0.08551552
0.07361164
0.06689648
0.06239758
0.05832983
0.05327858
0.04526652
0.03804927
0.0323007
0.0279345
0.02475045
0.0225928
0.02134518
0.02085772
0.02086229
0.02097249
0.02078006
0.02012088
0.01944047
0.01954811
0.02136567
0.02549594
0.0321692
0.04114273
0.04949821
0.05417312
0.05626275
0.0560531
0.05196926
0.0353395
0.08537596
0.07389603
0.06781243
0.06394954
0.06052202
0.0560612
0.04860869
0.04049296
0.03381352
0.02879964
0.02521833
0.02285188
0.02153729
0.02108193
0.02116588
0.02135476
0.02122258
0.02064544
0.02016736
0.02071712
0.02326454
0.02838894
0.03633317
0.04658147
0.05356991
0.05728092
0.0586306
0.05760487
0.05220356
0.03365382
0.08600458
0.07612776
0.07145457
0.06870024
0.06622877
0.06259372
0.05581552
0.04478759
0.03606498
0.02993384
0.02576724
0.02311786
0.02170397
0.02125982
0.02140276
0.02165198
0.02157267
0.02108493
0.02082822
0.02185977
0.0252548
0.03173315
0.04187573
0.05508444
0.06165793
0.06460524
0.06549476
0.06424396
0.05834276
0.03673997
0.09021629
0.08495591
0.08298312
0.08198048
0.08105681
0.07915873
0.0731563
0.05160018
0.03869265
0.03104793
0.02627186
0.02335085
0.02180589
0.0212958
0.02140637
0.02164695
0.02159672
0.02121981
0.02121706
0.02271992
0.02689382
0.03483263
0.0487187
0.07389925
0.07919705
0.08078944
0.08132623
0.08105498
0.07869406
0.06407507
0.09018644
0.08431465
0.0818376
0.08044285
0.07905522
0.07590135
0.06214797
0.04601505
0.03608615
0.02979105
0.02562588
0.02291444
0.02131791
0.02058668
0.02042583
0.02048253
0.02043101
0.02016873
0.02026578
0.021789
0.02588248
0.03363601
0.04713962
0.07189625
0.07716702
0.07892552
0.07966449
0.07969237
0.07808418
0.06552231
0.0853742
0.07389859
0.067832
0.06400857
0.06066648
0.05637894
0.04937851
0.04094449
0.03403545
0.02888591
0.02519671
0.02270188
0.02120583
0.02051257
0.02035457
0.02039839
0.02031515
0.0199503
0.01979829
0.02083315
0.0240492
0.03000726
0.03882042
0.0494255
0.05539857
0.05836481
0.05934852
0.05817119
0.05271287
0.03400188
0.08442545
0.07080438
0.06276616
0.05744803
0.05309273
0.04861637
0.04316235
0.0373411
0.0321412
0.0279303
0.02473056
0.02246336
0.02102649
0.02028061
0.02001587
0.01995855
0.01980524
0.01935752
0.01900423
0.01957246
0.02189606
0.02630612
0.03247018
0.03920167
0.04423184
0.04719856
0.04804355
0.04624615
0.03988919
0.02326031
0.08443298
0.07016938
0.06121946
0.05507178
0.05011508
0.04541696
0.04030607
0.03530092
0.03086207
0.02719378
0.02432862
0.02222831
0.02082284
0.02000388
0.01960899
0.01942686
0.01918863
0.01865654
0.01811555
0.0182642
0.01985344
0.02321543
0.02808445
0.03360767
0.0382869
0.04142648
0.04257216
0.04117919
0.03568199
0.02137115
0.08460078
0.07021434
0.06088509
0.0542899
0.04893296
0.04395951
0.03888001
0.03414263
0.0300333
0.02664993
0.0239846
0.02198746
0.02058681
0.0196838
0.01914973
0.01883271
0.01850209
0.01788568
0.01718007
0.0169824
0.01800283
0.02065504
0.02483878
0.02998362
0.03491576
0.03864308
0.04047684
0.0399143
0.03552433
0.0222494
0.08473822
0.07036039
0.06087088
0.05402605
0.04839848
0.04317289
0.0380493
0.03340883
0.02945485
0.02622458
0.02367474
0.02173448
0.02031849
0.01932448
0.01864569
0.01818733
0.01776045
0.01706425
0.01622512
0.01576084
0.01635247
0.01850445
0.02227697
0.02731271
0.03276068
0.03728872
0.03989703
0.04010719
0.03649378
0.02338198
0.08481952
0.07046026
0.06088789
0.05388989
0.04808229
0.04266822
0.0374777
0.03287354
0.0290055
0.02586684
0.02338656
0.0214749
0.02003043
0.01893985
0.0181091
0.01750199
0.01697759
0.0162123
0.01527749
0.01462518
0.01490142
0.0166883
0.02021225
0.02527329
0.03115297
0.03642249
0.03971038
0.04051166
0.03736811
0.02414909
0.08485688
0.07049953
0.06086727
0.05375532
0.04780726
0.04221579
0.03698437
0.03242302
0.0286259
0.02555426
0.02312031
0.02122152
0.0197409
0.01854818
0.01755394
0.01678744
0.01616766
0.01535251
0.01436667
0.01360094
0.0136484
0.01512925
0.01842243
0.02348886
0.02968387
0.03552358
0.03939273
0.04065709
0.03782524
0.02453007
0.08486651
0.07049596
0.06081218
0.0536067
0.04754476
0.04178293
0.03654545
0.03203866
0.02830426
0.02528398
0.02288228
0.02098807
0.01946811
0.01816857
0.016996
0.01605726
0.01535123
0.01451544
0.01352689
0.01271324
0.01259749
0.01378996
0.01678157
0.02170974
0.02805697
0.03434898
0.03876344
0.04043928
0.0378638
0.02461346
0.08486102
0.07046943
0.06074286
0.05346977
0.04734066
0.04149369
0.03623378
0.03174712
0.02804676
0.02505851
0.02267831
0.02078519
0.01922726
0.01782064
0.01645862
0.01533978
0.01456948
0.01374954
0.01280127
0.01198718
0.01175448
0.01266744
0.01527278
0.01987192
0.02616058
0.03279399
0.03779902
0.03989066
0.03756495
0.02448208
0.08484877
0.07043379
0.06067175
0.05335002
0.04718197
0.04129183
0.03601125
0.03152799
0.02784423
0.02487575
0.02251071
0.02061839
0.0190284
0.01752541
0.01598502
0.01470144
0.01390088
0.01312675
0.01224111
0.01144632
0.01112187
0.0117727
0.01395067
0.01806043
0.0240313
0.03083324
0.0365791
0.03910618
0.03703766
0.02421587
0.08483506
0.07039802
0.06060698
0.05324966
0.04705591
0.04114005
0.03584466
0.0313611
0.02768696
0.02473168
0.02237749
0.02048635
0.0188742
0.01730297
0.01563729
0.01424366
0.01344266
0.01272156
0.01189119
0.01110661
0.01069573
0.01111353
0.01290621
0.01654997
0.02214739
0.02898551
0.03529955
0.03820361
0.0363792
0.02386948
0.0848231
0.07036795
0.06055467
0.05317429
0.0469598
0.04102647
0.03572129
0.03123751
0.02756968
0.02462263
0.02227458
0.02038387
0.01876148
0.01716206
0.01544992
0.01402528
0.01325075
0.01257367
0.0117709
0.01096959
0.01046323
0.01067093
0.01213482
0.01539784
0.0207014
0.02750282
0.03407602
0.0372848
0.03568187
0.02349467
0.0848148
0.07034728
0.0605191
0.05312378
0.04689549
0.04095105
0.03563989
0.03115589
0.02749112
0.02454708
0.02219984
0.02030831
0.01868867
0.01710632
0.01543539
0.01406497
0.01333961
0.01268828
0.01187607
0.01102421
0.01040842
0.01042579
0.01161267
0.01455868
0.01960534
0.02631277
0.03303448
0.03648122
0.03506076
0.0231538
0.08481116
0.07033815
0.06050332
0.05310133
0.04686682
0.04091724
0.03560291
0.03111769
0.02745213
0.02450598
0.0221551
0.02026299
0.01866083
0.01714322
0.01560746
0.01437904
0.01370805
0.01304979
0.01218618
0.01125002
0.0105146
0.01037125
0.01135461
0.01407939
0.01894438
0.02556922
0.03236302
0.03596207
0.03465774
0.02292728
0.08481256
0.07034129
0.06050823
0.05310782
0.04687463
0.04092584
0.03561119
0.0311239
0.02745419
0.0245021
0.02214563
0.02025622
0.01868631
0.01727007
0.01593286
0.01489902
0.01428466
0.01359918
0.01265442
0.01161176
0.01075781
0.01049769
0.01137823
0.01402411
0.01883988
0.02544505
0.03224808
0.03588018
0.03460098
0.02289811
0.08481886
0.07035639
0.06053328
0.05314245
0.04691787
0.04097559
0.03566343
0.03117349
0.0274971
0.02453671
0.02217455
0.02029174
0.01876278
0.01746
0.01632805
0.01548361
0.01492236
0.01420997
0.01319642
0.01205728
0.01110374
0.01078073
0.01166694
0.01438592
0.01929676
0.02595745
0.03271803
0.03625469
0.03490409
0.02307413
0.08482947
0.07038213
0.06057658
0.05320304
0.04699395
0.04106368
0.03575687
0.03126423
0.02757954
0.02460954
0.02224235
0.02036917
0.01888397
0.01768757
0.01672965
0.01604003
0.01552932
0.01479947
0.01373632
0.01252735
0.01151398
0.01119026
0.01217803
0.0150892
0.02019499
0.02694648
0.03360056
0.03694808
0.03544947
0.0233756
0.08484321
0.07041598
0.06063453
0.05328716
0.04709839
0.041186
0.0358884
0.03139412
0.02770056
0.02472036
0.02234871
0.02048687
0.01904479
0.01794246
0.0171254
0.01655719
0.01608816
0.01534522
0.0142482
0.01299626
0.01196396
0.01170279
0.0128775
0.01606218
0.02140596
0.02823012
0.03470196
0.03779192
0.03609724
0.02372399
0.08485807
0.07045406
0.06070269
0.05339287
0.04723034
0.04134558
0.03606158
0.03156553
0.02786139
0.02486956
0.0224932
0.02064322
0.01924244
0.01822283
0.01752078
0.01704878
0.01661192
0.01585589
0.01473474
0.01346438
0.01245716
0.01232587
0.01377068
0.01730453
0.02291545
0.0297389
0.03587405
0.03864708
0.03672855
0.02405622
0.0848708
0.07049065
0.0607754
0.05351627
0.04739671
0.04156586
0.03629706
0.03179105
0.02806816
0.02505918
0.02267538
0.02083629
0.01947477
0.01852949
0.01792487
0.01753215
0.01712008
0.01635021
0.0152127
0.01394895
0.0130177
0.01309746
0.01491508
0.01890974
0.02487536
0.03159299
0.03704675
0.03941372
0.03724794
0.02431902
0.08487619
0.07051698
0.06084518
0.05365733
0.04761437
0.04190242
0.03663645
0.03209401
0.02833136
0.02529204
0.02289363
0.02106216
0.01973762
0.01886133
0.01834361
0.01802031
0.01762929
0.01684751
0.01570456
0.01447824
0.01368354
0.01405879
0.01631798
0.02076276
0.02693258
0.03333879
0.03807315
0.03998528
0.03755894
0.02445669
0.0848659
0.07051913
0.06089812
0.05380131
0.0478665
0.04229629
0.03705988
0.03247586
0.02865512
0.02556838
0.02314379
0.02131358
0.02002294
0.01921271
0.018777
0.01851936
0.01815019
0.01736353
0.01623321
0.01508564
0.01449695
0.0152321
0.01790895
0.02262636
0.0287338
0.03468367
0.03879334
0.04024864
0.03754684
0.02438692
0.08482746
0.07047756
0.06091533
0.05393116
0.04813525
0.04273397
0.03754524
0.03292365
0.02903523
0.02588526
0.02341941
0.02158002
0.02031826
0.01957254
0.01921837
0.01902769
0.0186856
0.01790618
0.01681457
0.01579896
0.01549363
0.01663587
0.01966689
0.02447525
0.03032096
0.03571192
0.03919764
0.04015526
0.037123
0.02402488
0.08474481
0.07037482
0.0608942
0.05406308
0.04845343
0.0432603
0.03812488
0.03345936
0.02948432
0.02624545
0.02371401
0.02184812
0.02060696
0.01992481
0.01965501
0.01953631
0.0192297
0.01847305
0.01745285
0.01663376
0.01669881
0.01829975
0.02165256
0.02645551
0.03192812
0.03666064
0.03945514
0.03979939
0.03628225
0.02327925
0.0846059
0.07022562
0.0609034
0.05431984
0.04898145
0.04404601
0.03895104
0.0341887
0.03006043
0.02667121
0.02402707
0.02210499
0.02087117
0.02025139
0.02007069
0.02003059
0.01976866
0.01905096
0.01813855
0.01758992
0.01813007
0.02029043
0.02405602
0.02893081
0.03404282
0.03805533
0.04008585
0.03964596
0.03534142
0.0221671
0.08443674
0.07017782
0.06123315
0.05509318
0.05014767
0.04546773
0.04036399
0.035344
0.03088795
0.02721384
0.02437045
0.02234467
0.02109834
0.02053776
0.02044984
0.02049316
0.02028278
0.01961811
0.01885
0.01865274
0.01980476
0.02273472
0.02724015
0.03256875
0.03748069
0.04089749
0.04222806
0.04094459
0.03552278
0.02130541
0.0844281
0.07081069
0.06277704
0.05746603
0.05312303
0.04866367
0.04324184
0.03739608
0.03216835
0.02794639
0.02476715
0.02257369
0.02128931
0.02078031
0.02078303
0.02090802
0.02075066
0.02014917
0.01955759
0.01979176
0.02172534
0.02577443
0.03167004
0.03833032
0.04356409
0.04676314
0.04776083
0.04605232
0.03975585
0.02320761
0.08537599
0.07390306
0.06784003
0.06402233
0.06068978
0.05641548
0.04944083
0.04098438
0.03405026
0.02889064
0.02522328
0.02280312
0.02145478
0.02097997
0.02105533
0.02124496
0.02113324
0.02060219
0.02020983
0.02093003
0.02380624
0.02947223
0.03810799
0.04875861
0.05492771
0.05806391
0.0591538
0.05803771
0.05261952
0.03396353
0.09018723
0.08431636