/*--------------------------------*- C++ -*----------------------------------*\
| =========                 |                                                 |
| \\      /  F ield         | OpenFOAM: The Open Source CFD Toolbox           |
|  \\    /   O peration     | Version:  2506                                  |
|   \\  /    A nd           | Website:  www.openfoam.com                      |
|    \\/     M anipulation  |                                                 |
\*---------------------------------------------------------------------------*/
FoamFile
{
    version     2.0;
    format      ascii;
    arch        "LSB;label=32;scalar=64";
    class       volScalarField;
    location    "100/airRegion";
    object      nut;
}
// * * * * * * * * * * * * * * * * * * * * * * * * * * * * * * * * * * * * * //

dimensions      [0 2 -1 0 0 0 0];

internalField   nonuniform List<scalar> 
85779
(
0.09218441
0.09255252
0.09233448
0.09205012
0.09163633
0.0906563
0.08758188
0.07714303
0.0686809
0.06575523
0.0655991
0.06751621
0.07157193
0.07768784
0.08487306
0.09068601
0.09124952
0.08353974
0.07178161
0.06297063
0.06064602
0.06457194
0.07650216
0.08763352
0.09042834
0.0910181
0.09068985
0.08816934
0.07421319
0.020156
0.09229235
0.09277858
0.09235904
0.09170555
0.09072995
0.08864415
0.08344651
0.07531265
0.07020701
0.06775205
0.0673249
0.06882883
0.07244052
0.07811947
0.08495942
0.09065105
0.09143485
0.08417278
0.07255777
0.06342101
0.06066302
0.06388682
0.07209617
0.08396162
0.08799114
0.08895555
0.08830004
0.08449108
0.06881745
0.01893296
0.09211707
0.09232844
0.09167352
0.09075943
0.08940151
0.08639913
0.07967963
0.07441818
0.0709646
0.06913878
0.06878407
0.07003661
0.07317031
0.07823467
0.08450461
0.08993417
0.09098384
0.08434594
0.07292676
0.06316592
0.05931852
0.06127658
0.06820635
0.0812151
0.08568001
0.0868352
0.08627732
0.08278537
0.06850106
0.01913875
0.09207209
0.09208755
0.09124706
0.09014178
0.08850352
0.08491706
0.07723933
0.07315988
0.07076669
0.06954153
0.06942518
0.07061694
0.07341044
0.07790904
0.08356955
0.08866973
0.08997333
0.08399642
0.07275616
0.06224911
0.05720184
0.05803798
0.06441756
0.07894197
0.08402746
0.08551026
0.08524718
0.08232452
0.06921321
0.01930628
0.09208638
0.09201027
0.09105276
0.08979168
0.08785457
0.08372081
0.07570671
0.07206481
0.07018181
0.06935212
0.06945957
0.07065831
0.07319623
0.07717657
0.08220083
0.08689695
0.08840952
0.08310428
0.0720872
0.06093195
0.05494232
0.05504363
0.06081458
0.07597982
0.08260192
0.08473381
0.08483037
0.08236158
0.06996535
0.01942024
0.09210969
0.09199315
0.09096276
0.08957051
0.08729897
0.08240461
0.07481913
0.07141248
0.06973446
0.06907926
0.06928321
0.07043605
0.07270844
0.07615321
0.08046907
0.08465382
0.08631802
0.08171004
0.07101197
0.05936884
0.05274364
0.05262628
0.05778441
0.07017454
0.08096663
0.0842058
0.08467006
0.08249665
0.07039405
0.01949521
0.0921263
0.09198879
0.09091033
0.08941976
0.08689931
0.0814408
0.07392175
0.07084573
0.06940815
0.06887607
0.06909624
0.07013707
0.0720978
0.07494768
0.07844329
0.08198659
0.08375711
0.07989863
0.06964007
0.0575856
0.05025898
0.04987386
0.05501289
0.06486376
0.07975351
0.08386542
0.08459188
0.08259884
0.0705995
0.01954096
0.09213448
0.09198192
0.0908634
0.08926655
0.08642141
0.08018817
0.07338995
0.07072851
0.06940001
0.0688475
0.06897921
0.0698442
0.07144894
0.07363725
0.07618868
0.07896492
0.08083696
0.07781225
0.06817218
0.05589213
0.04787711
0.04709052
0.052294
0.06250344
0.07905546
0.08358672
0.08450294
0.08263502
0.07069812
0.01956535
0.09213641
0.09197105
0.09081723
0.08910315
0.08571894
0.07823589
0.07369896
0.07110182
0.06960978
0.0688976
0.06888612
0.0695617
0.07080231
0.07228868
0.07379787
0.07572305
0.07775247
0.0756532
0.06681763
0.05456323
0.04593976
0.04460404
0.04969193
0.06036458
0.07820424
0.08320583
0.08434766
0.08259601
0.07071735
0.01957467
0.09213465
0.09195934
0.0907836
0.08900938
0.08542366
0.07743892
0.07332093
0.07093985
0.0695109
0.06879475
0.06873698
0.06928329
0.07019729
0.07099513
0.07144154
0.0725191
0.07481424
0.07369059
0.06577869
0.05378156
0.04466015
0.04260432
0.04714378
0.05768498
0.07657875
0.08253548
0.08408423
0.08248422
0.07067683
0.01957354
0.09213112
0.0919481
0.0907594
0.08895652
0.08529638
0.07708623
0.07298941
0.07068552
0.06932183
0.06864536
0.06858648
0.06904705
0.06969207
0.06989261
0.06939869
0.06976237
0.07242177
0.07222301
0.06521696
0.05357314
0.04406565
0.04132313
0.04510252
0.05445818
0.07258367
0.08127378
0.08368464
0.08231325
0.07059571
0.01956576
0.09212716
0.09193803
0.09074098
0.08892247
0.08522896
0.07690544
0.07277468
0.07049149
0.06916865
0.06852729
0.06847452
0.06887773
0.06933531
0.06912264
0.06798544
0.06789544
0.07092054
0.07149272
0.06524858
0.05381946
0.04374108
0.04019068
0.043338
0.05159757
0.06423029
0.07961917
0.08326408
0.08212483
0.07049314
0.01955397
0.09212367
0.09192983
0.09072704
0.08889856
0.08518603
0.07679224
0.07263415
0.07036215
0.06906721
0.0684494
0.06840057
0.06877414
0.06914642
0.06876229
0.06737563
0.06714799
0.07045642
0.07162002
0.06598566
0.05462623
0.0437511
0.03914254
0.04153975
0.04932277
0.06152661
0.07889154
0.08297809
0.08195313
0.07038676
0.01954084
0.09212121
0.09192417
0.09071769
0.08888292
0.08515883
0.07672067
0.07254655
0.07028272
0.06900422
0.06839799
0.0683521
0.06872955
0.0691339
0.06885042
0.06765138
0.06762727
0.07109059
0.07263119
0.06743164
0.05605215
0.04430709
0.03857407
0.04025193
0.0478243
0.06026586
0.07850838
0.08277674
0.08181185
0.07029436
0.01952908
0.09212011
0.09192161
0.09071341
0.08887574
0.08514614
0.07668604
0.07250171
0.0702385
0.06896415
0.06836083
0.06832321
0.06874675
0.06931462
0.06943493
0.06891989
0.06948668
0.07293652
0.07452062
0.06946352
0.05792917
0.04533965
0.03856496
0.03960115
0.0469973
0.05961457
0.07829148
0.08265324
0.08172241
0.07023495
0.01952146
0.09212049
0.09192235
0.0907145
0.08887742
0.08514876
0.07669208
0.07250656
0.07023678
0.0689529
0.06834328
0.0683202
0.06883046
0.06967808
0.07045976
0.0710455
0.07255665
0.07593663
0.07719623
0.07188097
0.05997195
0.04661993
0.03904574
0.03962876
0.04686729
0.05948472
0.07824212
0.08262779
0.08170632
0.0702245
0.0195202
0.09212231
0.09192628
0.09072078
0.08888767
0.08516618
0.07673744
0.07255947
0.0702768
0.06897171
0.06834896
0.06834621
0.0689697
0.07015765
0.07171142
0.07355093
0.07616976
0.07957125
0.08028135
0.07438561
0.06191117
0.04793829
0.03991309
0.0403047
0.04742663
0.05986556
0.07836799
0.08270478
0.08176658
0.07026522
0.01952554
0.09212538
0.09193307
0.09073176
0.0889058
0.08519731
0.0768175
0.07265301
0.07035326
0.06902056
0.06838209
0.06840448
0.06915296
0.07069001
0.0729946
0.07600999
0.07969526
0.08323646
0.08334912
0.07667924
0.06353024
0.04916056
0.04107232
0.04152783
0.04858205
0.06070393
0.07863275
0.08286091
0.08188382
0.07034282
0.01953542
0.09212931
0.09194207
0.09074691
0.08893191
0.08524537
0.07694368
0.07280286
0.07048701
0.0691229
0.06846384
0.06850881
0.06937912
0.0712423
0.07421324
0.07823161
0.08283376
0.08655636
0.08608399
0.07856034
0.06473226
0.05022196
0.04243392
0.04319789
0.05030873
0.06212841
0.07905381
0.08307666
0.0820329
0.0704386
0.01954723
0.09213351
0.09195263
0.09076646
0.0889703
0.08533131
0.07717906
0.07303736
0.07068577
0.06928209
0.06859847
0.06866336
0.06964831
0.07180587
0.07534759
0.08018686
0.08552457
0.0893879
0.08831894
0.07989746
0.06542908
0.05101908
0.04382826
0.04515047
0.05273743
0.06512693
0.07985721
0.08337055
0.08219618
0.07053428
0.01955827
0.09213709
0.09196416
0.09079279
0.0890382
0.08554077
0.07773537
0.0733474
0.07088784
0.06944742
0.06875456
0.06885163
0.06995303
0.07238015
0.07641071
0.08191383
0.08781212
0.09172011
0.0899937
0.08061949
0.06553398
0.05135877
0.04485615
0.04677719
0.0555927
0.07393647
0.08164662
0.08379774
0.0823631
0.07061321
0.01956583
0.09213875
0.09197611
0.09083046
0.08916816
0.08603969
0.07863735
0.07320611
0.07073622
0.06942493
0.06882874
0.06901959
0.07026703
0.072958
0.07741864
0.08346166
0.08976641
0.09359697
0.09112438
0.08077095
0.06519864
0.05153881
0.0460153
0.0488654
0.05870782
0.07709382
0.08272605
0.08414527
0.0824918
0.07065634
0.01956702
0.09213659
0.09198647
0.09087346
0.0893009
0.08644195
0.07963429
0.07357881
0.07067762
0.06930602
0.06880388
0.06913472
0.07056479
0.07352638
0.07837834
0.08486667
0.09144783
0.09507741
0.09178634
0.08054147
0.06486305
0.05221705
0.04789729
0.05141828
0.06124894
0.07846288
0.08330173
0.08435804
0.0825481
0.07064252
0.0195582
0.0921281
0.09199276
0.09091879
0.08944224
0.08685431
0.08066962
0.07416436
0.07086702
0.06934967
0.06885476
0.0692745
0.0708639
0.07407897
0.07928577
0.08614402
0.09289324
0.09621149
0.09207025
0.08012135
0.0647831
0.05348293
0.0502798
0.05405278
0.06332213
0.07923947
0.0836443
0.08447539
0.0825245
0.07055038
0.0195347
0.09211112
0.0919966
0.09097234
0.08960753
0.08742167
0.08259468
0.07480343
0.07129172
0.06963949
0.06906725
0.06948312
0.07116471
0.07459111
0.08011424
0.08728168
0.09411088
0.0970283
0.09204749
0.07963072
0.06502698
0.05524662
0.05303896
0.05686638
0.06543107
0.07989151
0.08393201
0.08455767
0.08242946
0.07035038
0.01949016
0.09208744
0.09201291
0.09106128
0.08983157
0.08800882
0.08405846
0.0756847
0.07194857
0.07011209
0.06936865
0.06968161
0.07138259
0.0749812
0.08079698
0.08823545
0.09508068
0.0975322
0.09174521
0.07907036
0.06545389
0.05723599
0.05598262
0.06003301
0.06836512
0.08082723
0.08434777
0.08470704
0.082296
0.0699131
0.0194167
0.09207282
0.09208927
0.0912515
0.09015958
0.08857413
0.08511634
0.07741917
0.07313703
0.07071243
0.06955491
0.0696426
0.07131927
0.07509568
0.08122467
0.08893376
0.09576274
0.09770973
0.09114438
0.07832093
0.06573233
0.05893658
0.05851666
0.06311666
0.0730171
0.08257504
0.0851548
0.08512962
0.08226358
0.06916504
0.019304
0.09211755
0.09232961
0.09167618
0.09076886
0.08944581
0.08658211
0.07980781
0.07414978
0.07076608
0.06909373
0.06897756
0.07070983
0.07476235
0.08128613
0.08930467
0.09611835
0.09755516
0.0902324
0.07728522
0.06569427
0.06036426
0.06115743
0.06680006
0.07933264
0.08495306
0.08659217
0.08618294
0.0827341
0.0684635
0.01913745
0.09229262
0.09277927
0.09236035
0.09170896
0.09074931
0.08876312
0.08391262
0.07532667
0.0702017
0.06781528
0.06756822
0.06950816
0.07396889
0.08096364
0.08931649
0.09612784
0.0970985
0.08907697
0.075985
0.06522262
0.06119694
0.0633326
0.07034758
0.08303732
0.08762903
0.08881912
0.08824035
0.08445585
0.06879165
0.01893231
0.0921845
0.09255274
0.09233486
0.09205078
0.09163832
0.09066935
0.08776565
0.07894111
0.06858624
0.06586379
0.06588599
0.0682113
0.07306372
0.08039807
0.08895083
0.09572839
0.09636226
0.08785669
0.07469949
0.06454285
0.06136961
0.06434647
0.07241014
0.08672015
0.09024216
0.09096447
0.09066821
0.08815655
0.07420324
0.02015592
0.09229249
0.09277629
0.09235472
0.09170844
0.09079095
0.08896579
0.08444716
0.07527131
0.06986927
0.06738822
0.0669904
0.06853825
0.072206
0.07796225
0.0849031
0.09069826
0.09155857
0.08426553
0.07254035
0.06338364
0.06078013
0.06420557
0.0724442
0.08406863
0.08800809
0.08893705
0.08829257
0.08453059
0.0689383
0.01894782
0.09172389
0.0930523
0.0932528
0.09239169
0.09065416
0.08760214
0.0824568
0.0764815
0.07200069
0.0694228
0.06865451
0.06977616
0.07300291
0.07832764
0.08492644
0.09060352
0.09170325
0.08493845
0.07349132
0.06407551
0.06100232
0.06388928
0.07075956
0.07896018
0.08352509
0.08467804
0.08270248
0.0751796
0.05478955
0.01435139
0.09095578
0.09173992
0.09201935
0.09118692
0.0892669
0.0859347
0.08147266
0.07688798
0.07327262
0.07097524
0.07012288
0.07092296
0.07364548
0.07835046
0.08437783
0.08979205
0.09117917
0.08514678
0.07410002
0.06423915
0.06016964
0.0618968
0.06742734
0.07443094
0.07883403
0.07991665
0.07757502
0.06961565
0.05015535
0.01374144
0.09063434
0.09080959
0.09067667
0.0895763
0.08744773
0.08394271
0.07984412
0.07615731
0.07330166
0.07144905
0.07075037
0.07144144
0.07380067
0.07792973
0.08333592
0.08840934
0.09006761
0.08480741
0.07414516
0.06367868
0.05836023
0.05880037
0.06326759
0.06984669
0.07448508
0.07597076
0.07419992
0.06729288
0.04960085
0.01408594
0.0905479
0.09040402
0.08991344
0.08849901
0.08612329
0.08248646
0.07843401
0.07511997
0.07270956
0.07121615
0.07071881
0.07140359
0.07350033
0.07710014
0.08184494
0.08648838
0.08836725
0.08388458
0.07362683
0.06256505
0.05605629
0.05545228
0.05925075
0.06575853
0.07117077
0.07350415
0.07264214
0.06691659
0.05047473
0.01443489
0.09053821
0.09025529
0.08954807
0.08789353
0.08527045
0.0815135
0.07747361
0.07430079
0.07209516
0.07079673
0.07041912
0.07107831
0.07291967
0.07597028
0.07996291
0.08405159
0.08609279
0.08241431
0.07265224
0.06112626
0.05360233
0.05226906
0.05577073
0.06219648
0.06871922
0.0720917
0.07208667
0.0672303
0.05145677
0.01466795
0.09054277
0.09019582
0.0893632
0.08754137
0.08467732
0.08070248
0.07668166
0.07365467
0.07160445
0.07042077
0.07008661
0.07066669
0.07221124
0.07464057
0.0777398
0.08112215
0.08328983
0.0804799
0.07136141
0.05955148
0.05110776
0.04909467
0.05247964
0.05918915
0.06692044
0.07119953
0.0718574
0.06757416
0.05214402
0.01480601
0.0905434
0.09015732
0.0892419
0.08729163
0.0841963
0.08008109
0.07619494
0.07330457
0.0713329
0.07017582
0.06981332
0.07026384
0.07146329
0.07318007
0.07521808
0.07774329
0.08005954
0.0782195
0.06993261
0.05810401
0.04890348
0.04621069
0.0494742
0.05664274
0.06534594
0.07039167
0.07158406
0.06770657
0.05249809
0.01487689
0.09053803
0.09012095
0.08914472
0.0870906
0.08377091
0.07965772
0.0759904
0.0731719
0.07119558
0.0700068
0.06958573
0.06989177
0.07072206
0.07165121
0.07247349
0.07403356
0.07660595
0.07584674
0.06855849
0.05699064
0.04722261
0.04378164
0.0466906
0.0540804
0.06352804
0.0693837
0.07109999
0.06756936
0.05255885
0.01490102
0.09052902
0.09008638
0.0890694
0.08695019
0.08348609
0.07923054
0.07563656
0.07290399
0.07097858
0.06980996
0.06936903
0.06955763
0.07003227
0.07015543
0.06969034
0.0702794
0.07328662
0.07366674
0.06745237
0.05635403
0.04619922
0.04193925
0.04416765
0.05130827
0.0611595
0.06799018
0.07034461
0.06718004
0.05238665
0.01489275
0.09051858
0.09005434
0.08901011
0.08685457
0.08330976
0.07895613
0.07534711
0.07264667
0.07076395
0.06962848
0.06918737
0.0692864
0.06945581
0.06886232
0.06723002
0.06700627
0.0705882
0.07202864
0.06681903
0.05624127
0.04579712
0.04072173
0.0421166
0.04857364
0.05814884
0.06615339
0.06935094
0.06660349
0.05205407
0.01486376
0.0905084
0.0900258
0.08896184
0.08678472
0.08319162
0.07878021
0.07514664
0.07245661
0.07060179
0.06949265
0.0690543
0.0690917
0.06904913
0.06796363
0.06554081
0.06481491
0.06891355
0.07119386
0.06681629
0.05664979
0.04580557
0.0397851
0.04027097
0.0460324
0.05504811
0.06427669
0.06831754
0.06594885
0.05163646
0.01482261
0.09049981
0.09000244
0.08892361
0.08673204
0.08310779
0.07866112
0.07501152
0.07232812
0.07049141
0.06939816
0.06896088
0.06896806
0.06883305
0.06754764
0.06481947
0.06393596
0.068364
0.07124944
0.06753021
0.05765968
0.04629686
0.0391962
0.03870428
0.0438991
0.05283375
0.06275504
0.06739258
0.06530347
0.05119987
0.01477755
0.09049384
0.08998628
0.08889735
0.0866963
0.08305279
0.07858541
0.07492716
0.07224775
0.07041963
0.06933176
0.06889521
0.06890924
0.06881622
0.06764961
0.06512933
0.06444046
0.06896517
0.07220189
0.06893743
0.05924874
0.04732183
0.03911891
0.03766496
0.0423695
0.05130732
0.0616022
0.06664232
0.06475221
0.05081698
0.01473727
0.09049115
0.08997895
0.0888853
0.08667957
0.08302666
0.07854837
0.07488405
0.07220352
0.07037509
0.06928563
0.06885539
0.06892234
0.06902426
0.06834326
0.06664245
0.06657176
0.07089449
0.07408158
0.07093694
0.06122861
0.04871477
0.03951166
0.03722427
0.04151196
0.05041119
0.06089127
0.06617226
0.0644021
0.05057226
0.01471113
0.09049197
0.08998095
0.08888832
0.08668339
0.08303225
0.07855479
0.07488807
0.07220088
0.07036268
0.06926568
0.06884982
0.06901499
0.06944928
0.06957855
0.06924969
0.070234
0.07420777
0.07686786
0.07337714
0.06333909
0.05020399
0.04022238
0.03738656
0.04142495
0.05026102
0.06076288
0.06609049
0.0643463
0.05053736
0.01470709
0.09049618
0.08999202
0.08890596
0.08670708
0.08306847
0.07860318
0.07493782
0.07223951
0.07038431
0.06927657
0.06888261
0.06917351
0.07000438
0.07106558
0.07227701
0.07452398
0.07829944
0.08017542
0.07597962
0.06533181
0.05157182
0.04111399
0.03809726
0.04210098
0.05086809
0.06123531
0.06641043
0.06459591
0.05071993
0.01472593
0.09050343
0.09001116
0.08893653
0.086748
0.08313109
0.07868754
0.0750273
0.07231631
0.07044116
0.06932254
0.06895593
0.06938142
0.07060517
0.07253909
0.07513604
0.07858285
0.08239012
0.08349674
0.07841279
0.06698379
0.05269329
0.04211231
0.03926118
0.04340401
0.05208158
0.06216903
0.06703449
0.06506856
0.05105544
0.01476028
0.0905129
0.09003642
0.08897734
0.08680387
0.08322103
0.07881573
0.07517011
0.0724486
0.07055135
0.06941919
0.06907878
0.06963293
0.07121134
0.07389004
0.07762187
0.08208231
0.0860395
0.086467
0.08044279
0.06818461
0.05353116
0.04317993
0.04079022
0.04520942
0.05378609
0.06341506
0.0678381
0.0656537
0.05145924
0.0148012
0.09052357
0.09006594
0.08902716
0.0868772
0.08334922
0.07901104
0.07538248
0.07264563
0.07072175
0.06957274
0.06925562
0.06992787
0.07181626
0.07511106
0.07974162
0.08500461
0.08911155
0.08890835
0.08192683
0.06885772
0.05405278
0.04426046
0.04259222
0.04748826
0.05612657
0.06495041
0.0687431
0.06625962
0.05185501
0.01484003
0.0905342
0.0900985
0.08908842
0.08698111
0.08355423
0.07932889
0.07567264
0.07289398
0.07093689
0.06977267
0.06948104
0.07026475
0.07242604
0.07623204
0.08157105
0.08744219
0.09162288
0.09076698
0.08279761
0.06895421
0.05419632
0.04520491
0.04441693
0.05001055
0.05927653
0.06680291
0.06970801
0.06681837
0.05217921
0.01486842
0.09054317
0.09013334
0.08916663
0.0871346
0.08388331
0.07969308
0.07590022
0.07308319
0.07112374
0.06997459
0.06973029
0.07063219
0.07304386
0.07728415
0.08318695
0.08950007
0.09364152
0.09206231
0.08308052
0.06857611
0.05415437
0.04623285
0.0464582
0.05272516
0.06208414
0.06847111
0.07055883
0.06723797
0.05236314
0.01487725
0.09054822
0.09016901
0.08926228
0.08732845
0.08427056
0.08019581
0.076234
0.0732794
0.07128321
0.07016041
0.06998467
0.07101623
0.07366593
0.07828582
0.08464362
0.09126026
0.09523982
0.09285959
0.08290993
0.06804379
0.05443922
0.0478714
0.04901337
0.05547239
0.06429263
0.06970836
0.07114564
0.0674189
0.05232252
0.01485484
0.09054703
0.09020633
0.08938179
0.0875739
0.08473487
0.08080989
0.07674176
0.07364749
0.07156896
0.07042399
0.07028233
0.07142095
0.07428486
0.07923868
0.08596678
0.09277158
0.096473
0.09323715
0.08244778
0.06762687
0.05527236
0.05012447
0.0518902
0.0580895
0.06606512
0.07064143
0.071491
0.06732549
0.05198938
0.0147866
0.09054177
0.09026432
0.08956539
0.08792821
0.08533686
0.08155349
0.07745102
0.07425496
0.07205748
0.07081697
0.07063699
0.0718291
0.07486993
0.08011752
0.08715007
0.09404843
0.09737124
0.09325925
0.0818165
0.06745462
0.05666224
0.05291703
0.05511435
0.06084124
0.06779674
0.07155946
0.07175751
0.06700942
0.05131931
0.01465181
0.09055062
0.09041102
0.08992755
0.08852955
0.08617308
0.08249885
0.07840455
0.07508902
0.07269431
0.07125905
0.07095426
0.07214369
0.07533416
0.08085592
0.08815254
0.09507402
0.09793957
0.09295522
0.08104337
0.06745665
0.05839857
0.05607634
0.05879572
0.06423007
0.0700639
0.07293371
0.07232322
0.06671145
0.05034644
0.0144222
0.0906363
0.09081463
0.09068615
0.08959591
0.08748809
0.08401845
0.0799017
0.07616249
0.0732926
0.07149077
0.07098225
0.0721561
0.07552116
0.08134536
0.0889045
0.09581013
0.09816645
0.09231638
0.08004533
0.0673581
0.06002062
0.05913257
0.06266528
0.0684404
0.07347276
0.0754371
0.07390332
0.06710473
0.04948554
0.01407638
0.09095716
0.09174364
0.09202624
0.09120041
0.08929639
0.08600252
0.08147498
0.07682026
0.07321431
0.0709888
0.07033549
0.07160373
0.07526027
0.08147528
0.08933401
0.09621798
0.09804811
0.09133892
0.07872659
0.06689038
0.06116487
0.06181678
0.0666317
0.07334021
0.0780928
0.07950075
0.07733405
0.0694588
0.05005867
0.01373444
0.09172475
0.09305459
0.09325687
0.09239898
0.09066985
0.0876469
0.08253124
0.07649705
0.07200021
0.06946573
0.06887598
0.07043956
0.07453595
0.0812223
0.08940421
0.09627475
0.09761578
0.09010227
0.07712698
0.06593167
0.06146301
0.06343279
0.06973437
0.07812515
0.0830495
0.08442009
0.08255164
0.07507759
0.05472262
0.01434688
0.09229278
0.09277697
0.09235595
0.09171063
0.09079487
0.08897313
0.0844581
0.07528774
0.06986726
0.06744319
0.06722151
0.06919501
0.07368607
0.08070596
0.0890781
0.0959045
0.09688732
0.08880238
0.07558078
0.06481123
0.06104144
0.06362887
0.07104646
0.08355934
0.0878143
0.08884803
0.08824415
0.08449817
0.06891379
0.01894693
0.09211739
0.0923274
0.09167408
0.09078201
0.08953937
0.08700194
0.08074561
0.07392347
0.07022703
0.06843602
0.06812962
0.06944264
0.07268132
0.07792894
0.08446171
0.09016803
0.09142567
0.08474411
0.07305795
0.06319409
0.05970571
0.06227404
0.06947063
0.08184016
0.08595653
0.0869534
0.08636976
0.08293317
0.06875036
0.01915953
0.09095889
0.09174665
0.09202825
0.0912036
0.08931681
0.08610745
0.08149821
0.0766692
0.07296904
0.0706469
0.06979017
0.07060753
0.07338437
0.07819985
0.08439239
0.08998143
0.09149825
0.08544846
0.07423675
0.06426482
0.06032977
0.0623709
0.06813034
0.07502942
0.0791457
0.08013667
0.07780797
0.06992838
0.05049816
0.01379966
0.08978756
0.08963055
0.09024143
0.09013007
0.08881563
0.08610159
0.08232034
0.07830637
0.07487298
0.07244724
0.07128982
0.07167434
0.07389746
0.07807229
0.0836755
0.08898547
0.09080791
0.08563211
0.07510907
0.06497255
0.06016456
0.06109876
0.06547018
0.0705906
0.07378731
0.0740221
0.07042461
0.06086019
0.04157625
0.01141719
0.08926915
0.08817516
0.08820153
0.0879819
0.08685202
0.08453679
0.08141948
0.07812445
0.07520192
0.07303208
0.07190308
0.07210458
0.07392644
0.07750094
0.08245083
0.08738721
0.0894917
0.08523489
0.07539855
0.06493743
0.05891695
0.05842824
0.06147675
0.06553594
0.06826637
0.06830174
0.06471472
0.05563139
0.03803228
0.01094978
0.08909996
0.08752884
0.08700412
0.08637324
0.08503936
0.08277803
0.07993957
0.07707628
0.0745831
0.07273981
0.07178254
0.07195812
0.0735038
0.07652458
0.08076315
0.08521658
0.08754489
0.0842072
0.07506175
0.0642381
0.05690108
0.05496955
0.05695364
0.06049626
0.06337357
0.06394127
0.06125052
0.05348982
0.03750178
0.01117705
0.08905715
0.08728966
0.08644586
0.08548276
0.08387861
0.08150339
0.07871083
0.07602369
0.07376785
0.07214859
0.0713362
0.07150552
0.07279997
0.07524056
0.07864977
0.08247059
0.08496434
0.08257255
0.07420125
0.06314237
0.05459507
0.05137723
0.05263376
0.05612892
0.05964686
0.06117879
0.0596298
0.05313503
0.03817071
0.01146195
0.08904817
0.08719933
0.08618755
0.0850127
0.08318366
0.08064595
0.07781991
0.07520501
0.07307407
0.07158041
0.07084323
0.07096435
0.0719672
0.07373404
0.0761277
0.07913325
0.08177427
0.08040603
0.07296214
0.06191913
0.05238585
0.04802834
0.0487426
0.05245697
0.05682404
0.05942244
0.05888754
0.05333284
0.03893612
0.0116529
0.08904293
0.08715005
0.08604055
0.08472932
0.08272881
0.08006526
0.07721951
0.07464454
0.07257543
0.07113781
0.07041694
0.07044294
0.0710942
0.07205688
0.07319673
0.0751991
0.07805948
0.07784397
0.07150657
0.06079489
0.0505898
0.04522119
0.04538148
0.0492692
0.05439279
0.05797325
0.05826735
0.05340052
0.03937731
0.01174944
0.08903474
0.08710829
0.08593229
0.08452531
0.08239501
0.07964768
0.07680675
0.07425772
0.07221699
0.07080118
0.07006978
0.06997669
0.07022921
0.07025848
0.0698928
0.07074862
0.07403439
0.07512176
0.0700276
0.05992763
0.04937439
0.04309015
0.04252258
0.04628862
0.05190674
0.05636294
0.05738502
0.05308907
0.03941541
0.01177457
0.08902413
0.08706834
0.08584439
0.0843719
0.08215283
0.07932151
0.07646079
0.07392838
0.07191642
0.07052585
0.06978815
0.06957899
0.06942127
0.06844868
0.06640721
0.06610025
0.07012944
0.07260149
0.068771
0.05944013
0.04879604
0.04168509
0.0401909
0.04344869
0.04919315
0.05436812
0.05611768
0.05237418
0.03909933
0.01174847
0.08901271
0.08703061
0.08577024
0.08425325
0.08197728
0.07908655
0.07619702
0.07366736
0.07167674
0.07031018
0.06957136
0.06926449
0.0687429
0.06685531
0.06324539
0.06198536
0.06698028
0.07070789
0.06799814
0.05942555
0.04880524
0.04093422
0.03840471
0.04086153
0.04634027
0.05194768
0.05452773
0.05135478
0.03853681
0.01168991
0.08900194
0.0869969
0.08570777
0.0841584
0.08184469
0.07891583
0.07600434
0.0734743
0.07149847
0.07014995
0.06941174
0.06903815
0.06826761
0.06576449
0.06112231
0.05931158
0.06507912
0.06971936
0.06789339
0.059958
0.04932694
0.0406674
0.03702697
0.03856867
0.0436225
0.04949916
0.05283526
0.05018359
0.03783723
0.01161234
0.08899304
0.08696952
0.0856583
0.08408422
0.08174507
0.07879246
0.0758676
0.07333764
0.07137059
0.07003147
0.06929281
0.06888892
0.06801504
0.0652696
0.06023925
0.05825472
0.06442007
0.06966151
0.06850747
0.06107882
0.05037557
0.04089971
0.03611727
0.03672183
0.04132521
0.04733377
0.05119948
0.04899415
0.03710125
0.01152849
0.08898691
0.08695074
0.08562455
0.08403412
0.08167886
0.07871205
0.07577926
0.07324813
0.0712826
0.06994332
0.06920333
0.06880961
0.06798958
0.06538475
0.06058451
0.05877373
0.06495203
0.0705096
0.06980029
0.06271716
0.05187265
0.04160163
0.03572961
0.03543882
0.03957784
0.04558245
0.04980737
0.04795714
0.03645032
0.01145294
0.08898416
0.08694223
0.08560913
0.08401097
0.08164774
0.07867335
0.07573506
0.07319994
0.07122924
0.06988303
0.06914613
0.06881326
0.06823128
0.06623036
0.06245244
0.06127217
0.06695078
0.07234895
0.0717137
0.06470369
0.05358931
0.04258302
0.03580429
0.03480094
0.03855917
0.04450198
0.04892205
0.04729319
0.03603265
0.01140321
0.08898497
0.08694454
0.08561299
0.08401636
0.08165425
0.07867976
0.07573867
0.07319673
0.07121507
0.06985825
0.06913369
0.06891377
0.06874276
0.06779236
0.06586009
0.06588653
0.07070905
0.07527981
0.07417015
0.06683675
0.05525202
0.043588
0.03621418
0.03485098
0.03845
0.04435132
0.04879212
0.04720087
0.03597965
0.01139647
0.08898925
0.08695738
0.0856356
0.08404945
0.08169722
0.07872994
0.0757891
0.07323883
0.0712431
0.06987556
0.06917247
0.06909465
0.06940526
0.06964615
0.06975075
0.07128246
0.07550289
0.07891932
0.07692232
0.06890269
0.05666141
0.04445624
0.03686212
0.03554978
0.03925031
0.04515457
0.04944982
0.04770328
0.03630475
0.01143445
0.08899666
0.08697967
0.08567502
0.08410725
0.08177248
0.07881916
0.0758825
0.07332486
0.07131513
0.06993911
0.06926366
0.06933272
0.07010048
0.07140324
0.07323397
0.07617266
0.08023783
0.0826206
0.07958227
0.07066015
0.05769797
0.04515672
0.03771847
0.03679235
0.04076848
0.04666666
0.05066477
0.04861974
0.03688727
0.01150076
0.08900646
0.08700937
0.08572813
0.08418591
0.08187802
0.07894959
0.07602526
0.07346405
0.07144138
0.07005784
0.06941107
0.06961689
0.07077949
0.0729432
0.07611202
0.08021288
0.08437757
0.08594422
0.08186491
0.07196129
0.05832665
0.04572333
0.03878732
0.03847326
0.04278358
0.0485982
0.0521644
0.04972687
0.03757868
0.01157836
0.08901775
0.08704432
0.0857925
0.08428328
0.08201514
0.07912763
0.07622475
0.07366339
0.07162849
0.07023759
0.06961813
0.06994637
0.07144025
0.07428483
0.07846838
0.08347452
0.08780566
0.08869898
0.08360442
0.0727132
0.05854481
0.04620098
0.04007494
0.04053401
0.04519131
0.05078116
0.05373887
0.05084232
0.03825164
0.01165255
0.0890294
0.08708255
0.08586776
0.08440487
0.08219833
0.07937413
0.07649432
0.07392922
0.07187968
0.07048078
0.06988684
0.07032443
0.07209778
0.07548587
0.08044409
0.08613228
0.09058482
0.09084042
0.08472784
0.07287305
0.05836475
0.04661507
0.04155593
0.042894
0.04790627
0.05314025
0.05528295
0.05183938
0.03880425
0.01171035
0.08903999
0.08712249
0.08595644
0.08456182
0.0824499
0.07969955
0.07682865
0.07425178
0.07218628
0.07078161
0.07021407
0.07075188
0.07276643
0.07659913
0.08215913
0.0883463
0.0928208
0.09239456
0.08524014
0.07250012
0.05794243
0.04715339
0.04334271
0.04551154
0.0506655
0.05530203
0.05662284
0.05258573
0.03913456
0.01173789
0.08904788
0.08716348
0.08606345
0.08476284
0.08277793
0.08012088
0.07725403
0.07464865
0.07255704
0.07114276
0.07059842
0.07122664
0.07345268
0.07765849
0.08369428
0.09023125
0.09460765
0.09341868
0.08522233
0.07180204
0.05765509
0.04823489
0.04572003
0.0484316
0.05331427
0.05709245
0.05761294
0.05295428
0.03912432
0.01171581
0.0890526
0.08721141
0.08620841
0.08504348
0.08322814
0.08069748
0.07785546
0.07521453
0.07306805
0.07160874
0.0710554
0.07174619
0.07415131
0.07867444
0.08509083
0.091854
0.09600976
0.09397708
0.0847948
0.07102458
0.05781201
0.05005572
0.04872061
0.05162224
0.05589557
0.0586799
0.05832862
0.05294418
0.03871346
0.01162347
0.08906091
0.08730002
0.08646426
0.08551117
0.08392088
0.08154184
0.07873308
0.07603135
0.07377249
0.07219808
0.07157272
0.07227928
0.07482821
0.07962611
0.08635169
0.09323886
0.09706013
0.09412326
0.08406771
0.07033984
0.05853145
0.05261661
0.05235989
0.05526951
0.05878552
0.06051139
0.05913581
0.05279078
0.03797325
0.0114372
0.089103
0.08753728
0.08701937
0.08639766
0.08507606
0.08281017
0.07996476
0.07709448
0.07460217
0.07280642
0.0720338
0.07271559
0.07539246
0.0804498
0.08744197
0.0943749
0.09776533
0.09388587
0.08308668
0.06974522
0.05965637
0.05568682
0.0565811
0.05965903
0.06255681
0.06331091
0.0607959
0.05317531
0.03732142
0.01115674
0.08927157
0.08818204
0.08821395
0.08800164
0.08688343
0.08457977
0.0814597
0.07814824
0.07522053
0.07309739
0.07215046
0.07283239
0.07568518
0.08103972
0.08829621
0.09522756
0.09811667
0.09326702
0.08180751
0.06902988
0.06073398
0.05870986
0.06096944
0.06471518
0.06751974
0.06773478
0.06430906
0.05534942
0.03786948
0.01093326
0.08978953
0.08963622
0.09025165
0.09014602
0.08883961
0.08613877
0.08234661
0.07830759
0.07486743
0.07249103
0.07151613
0.07236184
0.07553606
0.08128673
0.0888434
0.09575861
0.09811319
0.0922777
0.08016489
0.06791898
0.06123465
0.06100492
0.06482582
0.06981628
0.07316678
0.0735712
0.07010558
0.0606346
0.04144159
0.01140457
0.09096033
0.09175046
0.09203476
0.09121364
0.08933218
0.08613472
0.08152831
0.07667
0.07295339
0.07067495
0.06999699
0.07125868
0.07492342
0.08115642
0.08903395
0.09593309
0.09777941
0.09100874
0.07823654
0.06633902
0.06084756
0.06200596
0.06742172
0.07441758
0.07872689
0.07985522
0.07761474
0.06978869
0.05040791
0.01379211
0.09211793
0.0923286