/*--------------------------------*- C++ -*----------------------------------*\
| =========                 |                                                 |
| \\      /  F ield         | OpenFOAM: The Open Source CFD Toolbox           |
|  \\    /   O peration     | Version:  2506                                  |
|   \\  /    A nd           | Website:  www.openfoam.com                      |
|    \\/     M anipulation  |                                                 |
\*---------------------------------------------------------------------------*/
FoamFile
{
    version     2.0;
    format      ascii;
    arch        "LSB;label=32;scalar=64";
    class       surfaceScalarField;
    location    "100/airRegion";
    object      phi;
}
// * * * * * * * * * * * * * * * * * * * * * * * * * * * * * * * * * * * * * //

dimensions      [1 0 -1 0 0 0 0];

oriented        oriented;

internalField   nonuniform List<scalar> 
257196
(
0.01094889
0.0007881888
0.0007642689
0.01073909
0.00123191
0.001155235
0.01057258
0.001394939
0.001236814
0.0106692
0.001528514
0.001232779
0.01138575
0.001787238
0.001212738
0.01343475
0.002074974
0.001032933
0.02004053
-0.000878515
-0.0006242774
0.03353628
-0.007346376
-0.007151594
0.04831713
-0.01319356
-0.01423178
0.05690409
-0.01845946
-0.02089792
0.06030542
-0.02630077
-0.03015829
0.0587977
-0.03581507
-0.04114682
0.05234292
-0.04630569
-0.05314849
0.04132303
-0.05667118
-0.0649998
0.02671284
-0.06530866
-0.07498288
0.009892828
-0.07047239
-0.08123449
-0.007299969
-0.0706027
-0.0821189
-0.02246342
-0.0648275
-0.07649042
-0.03332946
-0.05439037
-0.06533599
-0.03810781
-0.04091104
-0.05030284
-0.03607862
-0.02683687
-0.03412076
-0.02792405
-0.01474031
-0.01967063
-0.01709986
-0.004781552
-0.008333287
-0.01103786
0.001288478
-0.0007926448
-0.009009125
0.003359184
0.001921206
-0.008223127
0.004343835
0.003319667
-0.007707954
0.005177714
0.004459601
-0.006856457
0.005991624
0.005503219
-0.004708226
0.006182286
0.005861698
0.0005791438
0.0003707957
0.01988861
0.0006921035
0.002349147
0.01987956
0.001166372
0.003498808
0.01999433
0.00133671
0.003571579
0.02060989
0.00139737
0.003050639
0.02252339
0.00144305
0.001731678
0.02732899
0.001064349
-0.001493621
0.03615124
-0.003450285
-0.005703487
0.04638809
-0.01006953
-0.009828183
0.05500209
-0.01524509
-0.01565423
0.06080221
-0.0204048
-0.0234743
0.06264566
-0.02683035
-0.03334641
0.06008151
-0.03446577
-0.04479459
0.05293572
-0.04290076
-0.05712019
0.04151978
-0.05129969
-0.0691189
0.02673564
-0.05835702
-0.07910425
0.009892566
-0.06253227
-0.08529296
-0.007302877
-0.06240208
-0.0861465
-0.02267156
-0.05730536
-0.08061091
-0.0341129
-0.04853804
-0.06965893
-0.03991627
-0.03752583
-0.05472181
-0.03949302
-0.02603046
-0.03828399
-0.03388639
-0.01558038
-0.02340262
-0.02511528
-0.006535057
-0.01260574
-0.01908775
2.220452e-05
-0.003577888
-0.01604904
0.002560525
0.004192739
-0.01434922
0.003824589
0.008877159
-0.01289757
0.004741657
0.01264384
-0.01068752
0.00543399
0.01662946
-0.005596358
0.005320553
0.02167822
0.0003114362
0.02910029
0.02396798
0.0005233486
0.003719454
0.02418116
0.0009465572
0.005630598
0.02466994
0.001124851
0.005682121
0.02591793
0.001181416
0.004539594
0.02900276
0.001116134
0.001790373
0.03601674
-2.31283e-05
-0.004401551
0.04659638
-0.004863165
-0.009190969
0.0553227
-0.01073548
-0.01224984
0.061719
-0.01561906
-0.01834168
0.06533771
-0.02046731
-0.02686256
0.06547421
-0.02598707
-0.0373755
0.06164637
-0.03232385
-0.04937769
0.05366032
-0.03924693
-0.06209117
0.0417742
-0.04613733
-0.07427981
0.02678644
-0.05193151
-0.08429735
0.009876722
-0.0552678
-0.09043438
-0.007388853
-0.0548514
-0.09124562
-0.02300285
-0.05022403
-0.08580796
-0.0350573
-0.04271212
-0.07512014
-0.04194049
-0.03354712
-0.06037415
-0.04288545
-0.02402964
-0.04370303
-0.03821607
-0.01519652
-0.0281793
-0.0293068
-0.007300347
-0.01673997
-0.02256565
-0.0006058821
-0.005200816
-0.01874354
0.002150328
0.006358381
-0.01617961
0.003316703
0.01427075
-0.01371172
0.004126346
0.02098367
-0.01022676
0.004652048
0.02817754
-0.003362388
0.004444281
0.03718617
0.001057057
0.0496782
0.0259276
0.0003608612
0.00474787
0.02625561
0.0006962619
0.007311859
0.02703117
0.0008767136
0.007344574
0.0288035
0.001005416
0.005592849
0.03265863
0.001089419
0.001594358
0.04097693
-0.001002841
-0.006479283
0.0528509
-0.006064232
-0.01189355
0.06138994
-0.01072538
-0.01486114
0.06674766
-0.01502928
-0.02142193
0.0690361
-0.01940597
-0.03054116
0.06791534
-0.02423247
-0.0416222
0.06305054
-0.02962335
-0.05408642
0.05432231
-0.035434
-0.06710369
0.04199514
-0.04119697
-0.07943592
0.02680692
-0.04602761
-0.08948324
0.009834235
-0.04869316
-0.09558358
-0.007484455
-0.04798766
-0.09634844
-0.02330677
-0.04363928
-0.09099744
-0.03589473
-0.0370281
-0.08061144
-0.04366294
-0.02924825
-0.06617648
-0.0455631
-0.02133153
-0.04939305
-0.04135366
-0.0141164
-0.03310237
-0.03191248
-0.007696497
-0.02040841
-0.02418151
-0.001112125
-0.006579631
-0.0195082
0.002009903
0.007953155
-0.01615244
0.002811246
0.01892384
-0.01294547
0.00338404
0.02845337
-0.008872196
0.00372986
0.03829293
-0.001606089
0.003500537
0.04966562
0.001094836
0.06328589
0.02691588
0.0002333908
0.00544234
0.02731523
0.0004749852
0.008486878
0.02837533
0.000625821
0.008480596
0.03086975
0.0007672277
0.006099334
0.03606215
0.0008883434
0.0008845402
0.04555995
-0.001996767
-0.007921401
0.05723018
-0.006605008
-0.01360502
0.06540636
-0.01032341
-0.01741756
0.07013324
-0.01397929
-0.024626
0.07161902
-0.01782527
-0.03429558
0.06966359
-0.02202224
-0.04582257
0.06406357
-0.02664292
-0.05860711
0.05478645
-0.03158316
-0.07180213
0.04212233
-0.03647712
-0.08419729
0.02677365
-0.04056754
-0.09424634
0.009742904
-0.04269928
-0.100306
-0.007620473
-0.04171018
-0.1010025
-0.02359314
-0.03751253
-0.09571558
-0.03658435
-0.03156697
-0.08567327
-0.04505266
-0.0248649
-0.07169958
-0.04777792
-0.01825037
-0.05500301
-0.04421574
-0.01251015
-0.03796283
-0.03468961
-0.007833623
-0.02363346
-0.02563385
-0.001991374
-0.008146933
-0.01977636
0.002034861
0.008216598
-0.01559829
0.002265572
0.0222044
-0.01186762
0.00257331
0.03423746
-0.007594438
0.002776288
0.0460396
-0.0003436608
0.002546994
0.05871446
0.000886922
0.07225823
0.02743839
0.0001434468
0.005871579
0.02789036
0.0003034365
0.009220258
0.02917981
0.0004099841
0.009144051
0.0324193
0.0004669076
0.006177739
0.03953139
0.0002495867
-0.0006754353
0.05030281
-0.002157245
-0.009355184
0.06051079
-0.006201715
-0.01450776
0.0680219
-0.009575327
-0.01975974
0.07229156
-0.0127296
-0.02770224
0.07323618
-0.01602887
-0.03788161
0.07071895
-0.01963236
-0.04978256
0.06462381
-0.02358478
-0.06279004
0.05497962
-0.02780399
-0.07607017
0.04209206
-0.03199737
-0.08846956
0.02663088
-0.03550087
-0.09850337
0.009545314
-0.03720009
-0.1045137
-0.007853632
-0.0359431
-0.1050967
-0.02389974
-0.0318398
-0.09982903
-0.03713739
-0.02643666
-0.09015397
-0.0461255
-0.02061755
-0.07678806
-0.04963323
-0.01502791
-0.06045243
-0.04746135
-0.01015379
-0.0427651
-0.04034352
-0.005991862
-0.02584162
-0.02930561
-0.001816747
-0.01085637
-0.02046373
0.0008767309
0.006155361
-0.0151061
0.001455059
0.02376396
-0.01096355
0.0017537
0.03802456
-0.006648073
0.001887711
0.05130122
0.0004092452
0.001708189
0.06478928
0.0006214424
0.07796489
0.02772631
8.512687e-05
0.006112551
0.02821539
0.0001876907
0.009618077
0.02964848
0.0002701841
0.009432752
0.03315959
0.0003498353
0.006006877
0.04048107
0.0002231591
-0.001652726
0.05180054
-0.002501344
-0.01067443
0.06227464
-0.006263425
-0.01613242
0.06963276
-0.008917375
-0.02202734
0.07357559
-0.01143363
-0.03053831
0.07412406
-0.0141697
-0.04117889
0.07121237
-0.01721258
-0.05339443
0.0647856
-0.02056771
-0.06656086
0.05490783
-0.02416275
-0.07987329
0.04187882
-0.02776118
-0.09225235
0.02632726
-0.0307751
-0.1022774
0.009163905
-0.03211423
-0.1082327
-0.008277588
-0.03062429
-0.1086325
-0.02431915
-0.02663655
-0.1033129
-0.03761961
-0.02176194
-0.0939991
-0.04683393
-0.01677125
-0.08136156
-0.05064964
-0.01215526
-0.0657492
-0.04865753
-0.008206178
-0.04823697
-0.04125374
-0.004883441
-0.03059629
-0.02953501
-0.001892904
-0.01463566
-0.02039207
0.0003014479
0.004246548
-0.01465124
0.0008722359
0.0239451
-0.01031666
0.001082277
0.03991018
-0.006026758
0.001150125
0.05435552
0.0008622386
0.001023235
0.06845905
0.0003813842
0.08137946
0.02790433
4.766675e-05
0.006230953
0.02845046
0.0001068923
0.009787835
0.03006981
0.0001601224
0.009454823
0.03403517
0.0002108908
0.005531937
0.04231813
1.422118e-05
-0.003382132
0.05435438
-0.002514664
-0.01191518
0.06421939
-0.005734278
-0.01694628
0.07094359
-0.00793188
-0.02381506
0.07440922
-0.009988366
-0.03301632
0.07456087
-0.01225728
-0.04411255
0.07132445
-0.01481183
-0.05660314
0.0646578
-0.01763795
-0.06988815
0.05462458
-0.02067543
-0.08320886
0.04149205
-0.02373791
-0.09557229
0.02583145
-0.02631121
-0.1056177
0.008526474
-0.02733945
-0.1115147
-0.008994595
-0.02568432
-0.1116374
-0.02498678
-0.02190633
-0.1061802
-0.03823747
-0.01761076
-0.09719329
-0.04753908
-0.01343872
-0.08531421
-0.05153798
-0.00977215
-0.07060349
-0.04959459
-0.006790746
-0.05366664
-0.04192794
-0.004368746
-0.03592028
-0.0298067
-0.002152466
-0.01920854
-0.02052691
-0.0001251237
0.001714402
-0.01448504
0.0005534406
0.02278712
-0.009993915
0.0006180846
0.04018032
-0.00570065
0.0005982032
0.05562752
0.001091239
0.0005037856
0.07028054
0.0001912175
0.08316339
0.02802306
2.251753e-05
0.006274033
0.02863496
4.476117e-05
0.009814913
0.0304513
4.759741e-05
0.009315877
0.03484606
4.534921e-06
0.004926202
0.04379868
-0.0003383166
-0.004987465
0.05645412
-0.002296402
-0.01304095
0.06584022
-0.004650708
-0.01767468
0.07192535
-0.006569925
-0.02532725
0.07490222
-0.008370147
-0.03516721
0.07469224
-0.01030785
-0.04667816
0.07118888
-0.01245237
-0.05939517
0.06434242
-0.01480445
-0.0727662
0.05419596
-0.01732311
-0.08608805
0.04096408
-0.01986728
-0.09845883
0.02514498
-0.02200388
-0.1085673
0.007608394
-0.02275396
-0.1144005
-0.0100386
-0.02105543
-0.114141
-0.02595351
-0.01764986
-0.108476
-0.03909506
-0.01401451
-0.09978087
-0.04844488
-0.01064353
-0.08863034
-0.05268072
-0.007844729
-0.0748523
-0.05096251
-0.005762223
-0.05866419
-0.04327265
-0.00422026
-0.04114013
-0.03087905
-0.002637952
-0.02404349
-0.02110298
-0.0003673277
-0.002208385
-0.0147218
0.000542354
0.02055264
-0.01000709
0.0003710862
0.03918927
-0.005629534
0.0002302449
0.05555548
0.001152128
0.0001404326
0.0707442
5.546841e-05
0.08378755
0.02809091
8.105868e-06
0.00627306
0.02873551
8.210919e-06
0.009759166
0.03062504
-1.860083e-05
0.009110297
0.03513132
-0.0001169668
0.004417951
0.0441655
-0.0004988288
-0.005996103
0.05694866
-0.002002447
-0.01420622
0.06634003
-0.003698216
-0.01894565
0.07223294
-0.005269197
-0.02695456
0.07498905
-0.006802597
-0.03714068
0.07457142
-0.008418978
-0.04889871
0.07089697
-0.01016969
-0.06176245
0.06392707
-0.01206273
-0.07519075
0.05369169
-0.01406846
-0.0885186
0.04035106
-0.01607808
-0.100925
0.02432289
-0.01774592
-0.1111339
0.006481138
-0.01824747
-0.1168906
-0.01131012
-0.01669578
-0.1161671
-0.0271199
-0.01387228
-0.1102787
-0.04013143
-0.01097683
-0.1018672
-0.04955347
-0.008358965
-0.09139352
-0.05416092
-0.006274035
-0.07848811
-0.052962
-0.004895279
-0.06305395
-0.045612
-0.004144589
-0.0458637
-0.03298092
-0.003354266
-0.0286625
-0.02240338
-0.0006355874
-0.006504556
-0.01545922
0.0008551297
0.0173896
-0.01036272
0.000298656
0.03725217
-0.005781687
1.084477e-05
0.05453483
0.001081442
-9.163381e-05
0.07025891
-2.992895e-05
0.08360214
0.02813223
1.570849e-06
0.006250483
0.02879618
-6.911503e-06
0.009665431
0.03072047
-4.113066e-05
0.008882697
0.03525364
-0.0001442727
0.003975956
0.04425254
-0.0004836902
-0.00675957
0.05701044
-0.001641068
-0.01522212
0.06642098
-0.002888273
-0.02015688
0.07226477
-0.004113683
-0.02839224
0.07491251
-0.005335738
-0.03878456
0.07436539
-0.006604908
-0.05070423
0.07057065
-0.007953055
-0.06367283
0.06350629
-0.009384619
-0.07714883
0.05319335
-0.01086816
-0.09049354
0.03974322
-0.01231295
-0.1029506
0.02349796
-0.01347031
-0.1132622
0.005351256
-0.01376543
-0.1189241
-0.01254785
-0.01259547
-0.1177463
-0.02822528
-0.01056289
-0.1117069
-0.04111742
-0.008463473
-0.1036013
-0.0506724
-0.006529006
-0.09375784
-0.05582056
-0.004959614
-0.08164635
-0.05555881
-0.003932652
-0.06686881
-0.04940862
-0.003522013
-0.04982342
-0.03765294
-0.003291291
-0.03212403
-0.02570456
-0.001083003
-0.01075065
-0.01700455
0.0009282022
0.01302866
-0.01109511
0.0001858926
0.03461983
-0.006127501
-0.000149282
0.0529149
0.0009112257
-0.0002345286
0.06917027
-8.288008e-05
0.08290455
0.02816168
-4.684134e-07
0.006221281
0.02884278
-9.512743e-06
0.009564713
0.0307956
-3.86772e-05
0.008666905
0.03535524
-0.0001229784
0.00359662
0.04433791
-0.0003874623
-0.00737022
0.05706237
-0.00124216
-0.01602554
0.06645996
-0.002139535
-0.02111082
0.07226026
-0.003034369
-0.02949648
0.07482712
-0.003925967
-0.04002791
0.07418307
-0.004835718
-0.05206216
0.07029833
-0.005779334
-0.06510927
0.06316387
-0.006749223
-0.07862377
0.05279585
-0.007704063
-0.09198308
0.03927145
-0.008564723
-0.1044706
0.02287823
-0.009190877
-0.1148358
0.004532512
-0.0093326
-0.1204109
-0.01339637
-0.008745004
-0.1189479
-0.02893814
-0.007654585
-0.1129017
-0.04173591
-0.006389186
-0.1051192
-0.05142383
-0.005107866
-0.09585061
-0.05706252
-0.003960457
-0.08449753
-0.05765972
-0.00308964
-0.0704749
-0.05296197
-0.002535197
-0.05371686
-0.04339464
-0.001982966
-0.03503041
-0.02985266
-0.0006979217
-0.01555229
-0.01875165
0.0002411915
0.008083311
-0.01187619
-5.823045e-05
0.0317918
-0.006531616
-0.0002527144
0.05102144
0.0006987734
-0.0002981354
0.06775038
-0.0001055758
0.08190286
0.02818449
-6.562229e-07
0.006194623
0.02888209
-7.094879e-06
0.009477893
0.03086283
-2.679122e-05
0.008489677
0.03545431
-8.363521e-05
0.00329992
0.04444435
-0.0002603628
-0.007827521
0.05715252
-0.0008206864
-0.01660268
0.06652617
-0.001399328
-0.02177652
0.07228072
-0.001972935
-0.03025411
0.07478278
-0.002535457
-0.0408744
0.07407031
-0.003092919
-0.05298192
0.07013055
-0.003644798
-0.06607546
0.06296512
-0.004167021
-0.07960372
0.05259257
-0.004604346
-0.09295198
0.03907744
-0.004886477
-0.1054253
0.02268162
-0.004987281
-0.1157892
0.004323271
-0.005010457
-0.1213433
-0.01355926
-0.005092989
-0.1198676
-0.0290194
-0.005002767
-0.1139652
-0.04180475
-0.004583746
-0.1064848
-0.0516643
-0.003953727
-0.09767805
-0.05772044
-0.003234921
-0.08695538
-0.05888024
-0.002550356
-0.07365849
-0.05464499
-0.001969133
-0.0575218
-0.04509625
-0.001388644
-0.0390908
-0.03113679
-0.0006092181
-0.0198092
-0.01977116
1.416632e-05
0.004665107
-0.01251247
-0.0001464169
0.02926096
-0.006910472
-0.0002585537
0.04913586
0.0004815733
-0.000277577
0.06625732
-9.809223e-05
0.08080301
0.02820067
-2.63325e-07
0.006175988
0.02891105
-3.257409e-06
0.009418255
0.03091371
-1.260807e-05
0.008370019
0.03553236
-3.974847e-05
0.003105387
0.04453619
-0.0001229149
-0.008119318
0.05723881
-0.0003845774
-0.01695888
0.06659358
-0.0006507985
-0.02217365
0.07231487
-0.0009105602
-0.03069569
0.07477731
-0.001155614
-0.0413586
0.07403167
-0.001379292
-0.05349612
0.07007829
-0.001564383
-0.06659668
0.06293179
-0.001669685
-0.0801036
0.05262368
-0.001625582
-0.09340173
0.03923147
-0.001367678
-0.1058034
0.02302146
-0.0009741149
-0.1161117
0.004877932
-0.0008759307
-0.1217388
-0.01288676
-0.001563414
-0.1205526
-0.02835063
-0.002421643
-0.114934
-0.04124153
-0.002827831
-0.1077108
-0.05135823
-0.00284914
-0.09921551
-0.05785471
-0.002584906
-0.08891558
-0.0595338
-0.002148454
-0.07613916
-0.05566521
-0.001656152
-0.06050947
-0.04616041
-0.001148016
-0.04240583
-0.03202463
-0.000602449
-0.02321398
-0.02058101
-0.0001359993
0.002266563
-0.01302718
-0.0001420147
0.02718501
-0.007231959
-0.0001834649
0.04753785
0.0002897501
-0.0001842713
0.06495931
-6.46583e-05
0.07981604
0.02820768
4.194634e-07
0.006167739
0.02892321
1.317397e-06
0.009391894
0.03093459
2.804848e-06
0.008317192
0.03556311
6.379969e-06
0.003020087
0.04457169
1.818782e-05
-0.008245192
0.05727281
5.63945e-05
-0.017107
0.06662234
9.750714e-05
-0.0223312
0.07233442
0.0001441272
-0.03085934
0.07478885
0.0002040493
-0.04152196
0.07404451
0.0002947162
-0.05364763
0.07011149
0.0004483502
-0.06671995
0.06301922
0.000719996
-0.08017771
0.052826
0.001188647
-0.09339553
0.03965749
0.001909267
-0.1056709
0.02382792
0.002721596
-0.1158525
0.006149653
0.002966935
-0.1216087
-0.01140141
0.001894931
-0.1209729
-0.02694728
0.0002664599
-0.1157721
-0.04005496
-0.0009095761
-0.1087657
-0.05050384
-0.00158269
-0.1004295
-0.05744991
-0.001807606
-0.09032117
-0.05961614
-0.001678784
-0.0777896
-0.05611584
-0.00135109
-0.06241034
-0.04676709
-0.0009665567
-0.04447284
-0.03263024
-0.0005787043
-0.02529998
-0.02106802
-0.0001828891
0.0005320121
-0.01334488
-9.020249e-05
0.02588683
-0.007432102
-6.041332e-05
0.04652749
0.0001670093
-4.227181e-05
0.06413301
-1.241068e-05
0.0791721
0.0282067
1.101333e-06
0.006170934
0.02892033
5.828911e-06
0.009401145
0.03092833
1.798111e-05
0.008334488
0.03555225
5.176586e-05
0.003047499
0.0445568
0.0001569167
-0.00820252
0.05725763
0.0004900507
-0.01704914
0.06661168
0.0008329295
-0.02225604
0.07233428
0.001178665
-0.03075903
0.07480574
0.00153401
-0.04138786
0.07408591
0.001925205
-0.05347182
0.07018891
0.002395995
-0.06649609
0.06315691
0.003009514
-0.07989655
0.05308291
0.003844219
-0.09302679
0.04016514
0.004933376
-0.1051394
0.02480384
0.006052643
-0.1151087
0.007751325
0.00644496
-0.1209512
-0.009441379
0.005251704
-0.1209935
-0.02503767
0.003131124
-0.1163561
-0.03840109
0.001305174
-0.1095591
-0.04920356
-5.28191e-06
-0.1012567
-0.05654621
-0.0007634291
-0.09112326
-0.05908899
-0.001011486
-0.07854379
-0.0558725
-0.000920506
-0.06310065
-0.04669787
-0.0007133207
-0.04508305
-0.03265957
-0.0005023736
-0.02581756
-0.02112
-0.0002048414
0.000142373
-0.01337947
-2.807235e-05
0.02561493
-0.007453591
6.927368e-05
0.04633941
0.0001532308
0.0001044009
0.06399702
4.117091e-05
0.07907713
0.02819765
1.543459e-06
0.006185353
0.02890245
9.514344e-06
0.009445051
0.03089523
3.154217e-05
0.008419952
0.03550038
9.344807e-05
0.00318455
0.04449245
0.0002876218
-0.007996236
0.05719343
0.0009072084
-0.01679216
0.06656016
0.001547357
-0.02195775
0.07231046
0.002186138
-0.03040896
0.07481997
0.002832
-0.0409769
0.07414201
0.003518736
-0.05299779
0.07028785
0.004296994
-0.06596399
0.0633082
0.005231107
-0.07930964
0.05332891
0.006388498
-0.09235916
0.04062035
0.007768491
-0.1043003
0.02566934
0.00909804
-0.1140152
0.00920586
0.009617781
-0.1198684
-0.007557009
0.008483745
-0.1205268
-0.02308746
0.006131305
-0.1165007
-0.03661867
0.003816148
-0.1099341
-0.04769482
0.001925863
-0.101594
-0.05531373
0.0006149887
-0.09125622
-0.05806309
-7.409989e-05
-0.0783614
-0.05498788
-0.0002887079
-0.06255063
-0.04595189
-0.0003177559
-0.04420655
-0.03207728
-0.0003613213
-0.02473755
-0.02070955
-0.0002412618
0.001137279
-0.01312206
1.909233e-05
0.0264077
-0.007292244
0.0001656604
0.04700047
0.0002513463
0.0002103807
0.06457127
7.778328e-05
0.07954876
0.02818018
1.255132e-06
0.006209246
0.02886927
1.13052e-05
0.009519232
0.03083524
4.14504e-05
0.008566329
0.03540681
0.0001270952
0.003421996
0.04438133
0.0004014781
-0.007636806
0.05708615
0.001305874
-0.01634274
0.06647323
0.002248871
-0.02143977
0.07226618
0.003176455
-0.02981103
0.07483175
0.004110793
-0.04029222
0.07420998
0.005095742
-0.05223167
0.07040212
0.00618404
-0.0651338
0.06346049
0.007434789
-0.07843325
0.05353671
0.008894777
-0.0914246
0.04096146
0.01052352
-0.103233
0.02629514
0.01201183
-0.1127379
0.01027466
0.01264296
-0.1185621
-0.006095429
0.01164632
-0.1196556
-0.02148481
0.009235927
-0.116145
-0.03507163
0.006577262
-0.1097776
-0.04628154
0.004183305
-0.1013334
-0.05399951
0.002335841
-0.09064617
-0.056763
0.001186183
-0.07721729
-0.05369279
0.0006441509
-0.06080759
-0.04477272
0.0003443964
-0.04197502
-0.03114531
-0.0001120705
-0.02225255
-0.01997345
-0.0002857439
0.003063465
-0.01265852
1.866716e-05
0.02805182
-0.007002537
0.0001986934
0.04830905
0.000423808
0.0002515554
0.06566028
9.112402e-05
0.08039166
0.0281573
-1.35273e-06
0.006239718
0.02882853
6.445518e-06
0.009616057
0.03076452
3.771953e-05
0.008761839
0.03530392
0.0001319148
0.003749277
0.0442807
0.0004628556
-0.007128299
0.05699987
0.001694146
-0.01569257
0.06639727
0.002996005
-0.02067628
0.07223154
0.004201884
-0.02893297
0.07485947
0.005411696
-0.03930515
0.07430031
0.00669517
-0.05115265
0.07053747
0.008101897
-0.06399193
0.06361745
0.009677753
-0.07725961
0.05370666
0.01144346
-0.09022392
0.04118061
0.01331504
-0.1019537
0.02665771
0.0149546
-0.1113158
0.01090119
0.01569456
-0.1170993
-0.005182852
0.01484752
-0.1184528
-0.02041584
0.01245999
-0.1152978
-0.0339738
0.009559132
-0.1090457
-0.04518381
0.006736136
-0.1004148
-0.05281656
0.00439439
-0.08924913
-0.05539775
0.002818645
-0.07511544
-0.05221072
0.002023835
-0.05796189
-0.04342463
0.001509529
-0.03860409
-0.03008948
0.0002827171
-0.01868049
-0.01909929
-0.0004884918
0.005762005
-0.01209788
-9.760169e-05
0.0302371
-0.00665724
0.0001378132
0.04998298
0.0006249337
0.0002112111
0.06700413
7.53972e-05
0.08138757
0.02812734
-8.921659e-06
0.006270886
0.02877952
-1.303802e-05
0.00972101
0.03068334
1.864119e-06
0.008985397
0.03520086
5.723662e-05
0.004143464
0.04423758
0.0003592016
-0.00648748
0.05698787
0.00207669
-0.01483851
0.0663349
0.00396062
-0.01966009
0.07219789
0.005371097
-0.0277564
0.0748962
0.006798627
-0.037991
0.07440767
0.008368856
-0.04973386
0.07069216
0.01010111
-0.06251246
0.06378042
0.01202033
-0.07576462
0.05384443
0.01411358
-0.08873524
0.04129106
0.01625114
-0.1004416
0.02678675
0.01806518
-0.1097262
0.0111316
0.01892419
-0.1154712
-0.004793811
0.01820853
-0.1169501
-0.0199015
0.01585595
-0.1139837
-0.0333791
0.01275994
-0.1077334
-0.04446129
0.00955525
-0.09881718
-0.05180455
0.006752299
-0.08706066
-0.05393711
0.004773959
-0.07213362
-0.05032864
0.00381494
-0.0542661
-0.04156115
0.003396128
-0.03461825
-0.02872284
0.0009332629
-0.01443274
-0.0180847
-0.001197269
0.009240818
-0.01148871
-0.0003832761
0.03269233
-0.006308222
-3.321119e-05
0.05173849
0.0008193035
7.674464e-05
0.06833771
2.488574e-05
0.08232983
0.02808264
-2.426753e-05
0.006293386
0.02870737
-5.351387e-05
0.009813465
0.03054964
-7.701692e-05
0.00921136
0.03499783
-0.0001671856
0.00459409
0.04412211
-0.0002681528
-0.005599352
0.05677418
0.002724455
-0.01384712
0.06608917
0.005484272
-0.01854672
0.07205494
0.006788432
-0.02630672
0.0748804
0.008312641
-0.03634789
0.07449634
0.01015698
-0.04795601
0.07084553
0.01222612
-0.06066548
0.06394164
0.0145168
-0.07391368
0.05395537
0.01697624
-0.08692095
0.04131655
0.01942409
-0.098653
0.02673437
0.02145521
-0.1079152
0.0110519
0.02245279
-0.1136301
-0.004830698
0.02184059
-0.1151406
-0.01986219
0.01949055
-0.112218
-0.0332234
0.01618889
-0.1058526
-0.04403178
0.01258283
-0.09655478
-0.0507859
0.009240529
-0.08414854
-0.05192496
0.006644175
-0.06851557
-0.04659171
0.004908522
-0.05046675
-0.03514011
0.003395342
-0.03213163
-0.02406175
0.0005285984
-0.00980718
-0.01629652
-0.0008351835
0.01423823
-0.01077385
-0.0004819239
0.03530129
-0.005974181
-0.0002653512
0.05331098
0.0009838161
-0.0001498283
0.06940038
-5.956626e-05
0.08301183
0.02800809
-4.875867e-05
0.006292672
0.02857956
-0.0001109687
0.009864339
0.03026723
-0.0001681393
0.009410098
0.03403928
-0.0002227354
0.005206638
0.0412049
-2.853373e-05
-0.00335926
0.05258956
0.002172543
-0.01263538
0.06441484
0.005622284
-0.0188689
0.07144262
0.007826704
-0.02494348
0.07463644
0.00982713
-0.03444433
0.07447025
0.01202255
-0.0458351
0.07094104
0.01448382
-0.05843558
0.06407133
0.01719815
-0.071674
0.05403379
0.0200823
-0.08473725
0.04127863
0.02290365
-0.09653364
0.02655526
0.0252091
-0.1058169
0.01075313
0.02637323
-0.1115131
-0.005181372
0.02583739
-0.1129929
-0.02019208
0.02343299
-0.1099993
-0.03342581
0.01986778
-0.103408
-0.04386636
0.0157758
-0.09363611
-0.04989098
0.01173862
-0.08054888
-0.04999553
0.008260645
-0.06432242
-0.04360429
0.005497764
-0.0461591
-0.03173981
0.00304827
-0.02823491
-0.02177842
0.0003883427
-0.005840862
-0.01516671
-0.0006449151
0.01791073
-0.01026518
-0.0006569682
0.03740577
-0.005769447
-0.0006002101
0.05437189
0.001072837
-0.0004936187
0.06990385
-0.0001876852
0.08320949
0.02788882
-8.602167e-05
0.006247301
0.02839685
-0.000189942
0.009830954
0.02990313
-0.0002725158
0.009536389
0.03334522
-0.0003238969
0.005763408
0.04016409
-0.0001221134
-0.001936439
0.05096852
0.002007019
-0.01167973
0.0629326
0.005874597
-0.01799155
0.07043723
0.00870934
-0.0234274
0.07405996
0.01123137
-0.0323926
0.07420935
0.0138937
-0.04341448
0.07088845
0.01683849
-0.05582689
0.06411264
0.0200606
-0.06902321
0.0540563
0.02345345
-0.08214332
0.04118813
0.02673236
-0.0940271
0.0262954
0.02938604
-0.1033634
0.01031407
0.03075735
-0.1090526
-0.00574914
0.0302807
-0.1104604
-0.02080514
0.02776066
-0.1073039
-0.03394756
0.02385675
-0.100374
-0.04403685
0.01918272
-0.09000204
-0.04941461
0.01432537
-0.07612773
-0.04879698
0.009843586
-0.05925956
-0.04196544
0.006032595
-0.04097301
-0.03022571
0.002797885
-0.02347702
-0.02091866
0.0001611492
-0.001763436
-0.01477251
-0.0007719836
0.02046866
-0.01017424
-0.001032092
0.03860326
-0.005806116
-0.001108648
0.0545508
0.001026009
-0.0009895417
0.06950682
-0.0003683207
0.0826276
0.02771074
-0.0001442478
0.006126429
0.02816624
-0.0003054336
0.00965471
0.02951022
-0.000415701
0.009503211
0.03262212
-0.0004393998
0.006200444
0.03877677
-8.456075e-05
-0.0005785886
0.04917015
0.001520194
-0.01046123
0.06123408
0.005737336
-0.01683063
0.06913636
0.009366597
-0.02170024
0.07316089
0.0125267
-0.0300457
0.07366154
0.01574668
-0.04064209
0.07061346
0.01926007
-0.05281726
0.0640031
0.02308093
-0.06593706
0.05398908
0.0270839
-0.07910049
0.04104567
0.03092614
-0.09107868
0.02599102
0.03402139
-0.1004867
0.009804697
0.03565763
-0.1061795
-0.006437476
0.03523781
-0.1074888
-0.02158893
0.03254423
-0.104095
-0.03466611
0.02821652
-0.096717
-0.04442051
0.02285948
-0.0856192
-0.04924682
0.01709437
-0.07089136
-0.04816185
0.01158381
-0.05346725
-0.04120522
0.006752224
-0.03530741
-0.02963594
0.002641541
-0.01866216
-0.02072945
-0.0002588573
0.001634828
-0.01488702
-0.001186898
0.02192215
-0.01046627
-0.001623573
0.03856634
-0.006116033
-0.001808551
0.05343324
0.0008055939
-0.001655002
0.06779195
-0.0006008027
0.0809158
0.02742129
-0.0002335859
0.005882753
0.02783916
-0.0004747162
0.00924974
0.02903361
-0.00062426
0.009206323
0.03207419
-0.0007788165
0.006343938
0.03897504
-0.000998025
-0.0001981863
0.04934761
0.00179014
-0.009270928
0.05974954
0.006484708
-0.01462015
0.06748115
0.01016885
-0.01953314
0.07181573
0.01377016
-0.0273596
0.07268641
0.01756236
-0.03750051
0.06999392
0.02169065
-0.0493996
0.06365527
0.02619831
-0.06240159
0.05378465
0.0309319
-0.07557816
0.04084357
0.03547148
-0.08763965
0.02567147
0.03912948
-0.09712475
0.009290442
0.04111059
-0.1028283
-0.007144923
0.04076027
-0.1040231
-0.02240203
0.03783387
-0.1003358
-0.03539426
0.03297886
-0.0924184
-0.04478807
0.02682367
-0.08051409
-0.04911878
0.0200866
-0.0649728
-0.04775286
0.01359956
-0.04724144
-0.0409287
0.007837465
-0.02962839
-0.02970029
0.002543776
-0.01428512
-0.02094113
-0.0008338393
0.003544617
-0.01539977
-0.00183261
0.02203836
-0.01112683
-0.002394418
0.03693634
-0.006738523
-0.00267647
0.05056434
0.000355934
-0.002484316
0.06425643
-0.0008631521
0.07759581
0.02690176
-0.0003604985
0.005450852
0.02727033
-0.0006925427
0.008509524
0.02823516
-0.0008589566
0.008529528
0.03039761
-0.0009224841
0.006271567
0.03482496
-0.0008096466
0.001351837
0.04394734
0.0007531295
-0.007769744
0.05634123
0.005512883
-0.01396357
0.06486183
0.01049604
-0.01732278
0.06964243
0.0148395
-0.02438431
0.07102736
0.0191924
-0.03405088
0.06885934
0.02397726
-0.04561715
0.062967
0.02928233
-0.0584352
0.0533946
0.03490889
-0.07156766
0.04057433
0.04032787
-0.08367689
0.02536304
0.04471035
-0.09322839
0.008832094
0.04714286
-0.09894616
-0.007769568
0.04688405
-0.1000206
-0.02308746
0.0436483
-0.09600548
-0.03590094
0.03811856
-0.08749918
-0.04481137
0.03099428
-0.07479526
-0.04854818
0.02317471
-0.05862823
-0.04683468
0.01577128
-0.04100649
-0.04024234
0.009401412
-0.02452557
-0.0296528
0.002562485
-0.01075701
-0.02124608
-0.001925925
0.004621379
-0.01612895
-0.00266202
0.02060053
-0.01209842
-0.003260903
0.03339719
-0.007702527
-0.003646271
0.04549661
-0.0003977789
-0.003444869
0.05832683
-0.001073888
0.07199119
0.0259201
-0.0005234241
0.00475342
0.02623466
-0.0009452104
0.007326446
0.02698005
-0.001117909
0.007372607
0.02870005
-0.001153554
0.005657425
0.03255717
-0.001075638
0.001761786
0.04074817
-0.0002240561
-0.006305928
0.05246085
0.004662582
-0.01178973
0.06093807
0.01079588
-0.01476477
0.06627241
0.01550157
-0.02127409
0.06842955
0.02031643
-0.03042546
0.06706877
0.02582949
-0.04157586
0.06187773
0.03211697
-0.05410663
0.0528046
0.03888809
-0.06709977
0.04024859
0.04544835
-0.07919266
0.02509342
0.05077391
-0.08878527
0.008477974
0.0537938
-0.09451825
-0.008230719
0.05364907
-0.09547754
-0.02351347
0.04998705
-0.09112762
-0.0359701
0.04354191
-0.08204006
-0.0441184
0.03512628
-0.06865395
-0.04683183
0.02588377
-0.05220353
-0.04376882
0.01709101
-0.0353767
-0.03525545
0.009295408
-0.02153502
-0.02649742
0.001630887
-0.008191758
-0.02062381
-0.002196541
0.005635466
-0.01666292
-0.003281727
0.01773174
-0.01317659
-0.004061728
0.02785064
-0.008981187
-0.004593549
0.03792363
-0.001664394
-0.004399617
0.0494119
-0.001046181
0.06311557
0.02396319
-0.0006922147
0.003722219
0.02416765
-0.001165535
0.005637762
0.02463397
-0.00133198
0.005696051
0.02581784
-0.001374989
0.004571057
0.02868357
-0.001382093
0.001909606
0.03508348
-0.001023834
-0.003798361
0.04513638
0.003412056
-0.009117776
0.05443826
0.009826018
-0.01277697
0.06116359
0.01481561
-0.01837232
0.06471921
0.02024195
-0.02686401
0.06461734
0.02677109
-0.0374605
0.06044084
0.03441643
-0.04956164
0.05207084
0.04274063
-0.0622925
0.03990345
0.05081655
-0.07429076
0.02488349
0.05736515
-0.08389678
0.00824717
0.06112685
-0.08965138
-0.008501049
0.061109