/*--------------------------------*- C++ -*----------------------------------*\
| =========                 |                                                 |
| \\      /  F ield         | OpenFOAM: The Open Source CFD Toolbox           |
|  \\    /   O peration     | Version:  2506                                  |
|   \\  /    A nd           | Website:  www.openfoam.com                      |
|    \\/     M anipulation  |                                                 |
\*---------------------------------------------------------------------------*/
FoamFile
{
    version     2.0;
    format      ascii;
    arch        "LSB;label=32;scalar=64";
    class       volScalarField;
    location    "2000/solid";
    object      T;
}
// * * * * * * * * * * * * * * * * * * * * * * * * * * * * * * * * * * * * * //

dimensions      [0 0 0 1 0 0 0];

internalField   nonuniform List<scalar> 
2304
(
310.0086
310.1507
310.209
310.219
310.2002
310.1218
310.1531
310.3068
310.3658
310.3757
310.3573
310.2778
310.2106
310.365
310.4246
310.4347
310.4163
310.3364
310.2207
310.3749
310.4347
310.4448
310.4264
310.3465
310.2024
310.3568
310.4164
310.4264
310.408
310.328
310.124
310.2768
310.3356
310.3454
310.327
310.2477
310.082
310.2009
310.2033
310.3467
310.2295
310.2794
310.376
310.426
310.2875
310.2975
310.4341
310.444
310.2974
310.2869
310.4439
310.4337
310.2788
310.2295
310.4257
310.3765
310.201
310.0787
310.3475
310.2011
310.2318
310.3758
310.2809
310.4251
310.4052
310.4555
310.4547
310.5053
310.4636
310.4735
310.5134
310.5234
310.4734
310.4633
310.5234
310.5133
310.4553
310.406
310.5053
310.4559
310.3769
310.23
310.4267
310.2799
310.2889
310.433
310.299
310.4429
310.4626
310.5133
310.4725
310.5231
310.5214
310.5314
310.5313
310.5414
310.5314
310.5214
310.5413
310.5313
310.5134
310.464
310.5233
310.4739
310.4347
310.2881
310.4447
310.2983
310.299
310.4429
310.2889
310.433
310.4725
310.5231
310.4626
310.5132
310.5313
310.5414
310.5214
310.5314
310.5413
310.5313
310.5313
310.5213
310.5233
310.4739
310.5133
310.4639
310.4447
310.2983
310.4347
310.288
310.2808
310.425
310.2316
310.3756
310.4546
310.5052
310.405
310.4553
310.5134
310.5233
310.4634
310.4733
310.5233
310.5132
310.4732
310.4631
310.5052
310.4558
310.4551
310.4058
310.4266
310.2797
310.3766
310.2297
310.203
310.3465
310.0813
310.2003
310.3757
310.4257
310.2289
310.2788
310.4338
310.4437
310.2869
310.2969
310.4436
310.4334
310.2968
310.2863
310.4254
310.3762
310.2782
310.2289
310.3472
310.2007
310.2003
310.078
310.1218
310.1243
310.2475
310.2008
310.2771
310.3276
310.2191
310.3358
310.3458
310.2084
310.3457
310.3354
310.1507
310.3273
310.2775
310.0046
310.2481
310.1212
310.277
310.2025
310.3268
310.3576
310.3568
310.4081
310.3758
310.4164
310.4266
310.3655
310.4265
310.4163
310.3074
310.4081
310.3579
310.1504
310.3282
310.2006
310.3348
310.2207
310.3448
310.4163
310.3749
310.4263
310.4348
310.4347
310.4449
310.4245
310.4449
310.4346
310.3661
310.4264
310.3763
310.2089
310.3465
310.2191
310.3448
310.2105
310.3348
310.4263
310.3649
310.4162
310.4449
310.4246
310.4347
310.4346
310.4347
310.4244
310.3763
310.4163
310.3661
310.2191
310.3363
310.2087
310.3267
310.1529
310.2768
310.408
310.3066
310.3574
310.4265
310.3656
310.3756
310.4162
310.3755
310.3653
310.3578
310.3571
310.3072
310.2004
310.2776
310.1501
310.2472
310.0079
310.1212
310.3273
310.1501
310.2002
310.3455
310.2084
310.2184
310.3351
310.2183
310.2078
310.2772
310.1995
310.15
310.1208
310.1211
310.0039
310.2043
310.1075
310.1516
310.1525
310.3398
310.2612
310.2832
310.3178
310.3813
310.3195
310.3248
310.376
310.3842
310.3294
310.3277
310.3858
310.3558
310.3107
310.2991
310.3673
310.2518
310.2325
310.1957
310.2892
310.3395
310.2621
310.3178
310.2838
310.4794
310.4351
310.4574
310.4571
310.5208
310.4935
310.4987
310.5155
310.5237
310.5032
310.5016
310.5253
310.4958
310.4851
310.4736
310.5072
310.3903
310.4066
310.3682
310.4287
310.3803
310.3195
310.375
310.3248
310.5201
310.4925
310.5149
310.4978
310.5617
310.5511
310.5564
310.5563
310.5647
310.561
310.5594
310.5662
310.5368
310.543
310.5315
310.5482
310.4315
310.4645
310.4262
310.4698
310.3835
310.3295
310.385
310.328
310.5232
310.5024
310.5247
310.5009
310.5648
310.561
310.5663
310.5595
310.5678
310.5709
310.5693
310.5694
310.5399
310.5529
310.5414
310.5514
310.4347
310.4745
310.4362
310.473
310.3554
310.3113
310.3669
310.2997
310.4954
310.4845
310.5069
310.473
310.5368
310.5431
310.5484
310.5315
310.5398
310.5529
310.5513
310.5413
310.5118
310.5349
310.5234
310.5233
310.4063
310.4564
310.418
310.4448
310.2511
310.2331
310.2886
310.1962
310.3887
310.4054
310.4276
310.3666
310.4301
310.4637
310.469
310.4248
310.433
310.4734
310.4718
310.4346
310.4047
310.4552
310.4437
310.4162
310.3
310.3768
310.3385
310.338
310.0437
310.0452
310.0841
310.1727
310.1932
310.2152
310.2144
310.2515
310.2569
310.2173
310.2614
310.2597
310.1886
310.2428
310.2312
310.0851
310.1643
310.1271
310.1941
310.1748
310.2158
310.3292
310.3289
310.3515
310.3712
310.3882
310.3936
310.3742
310.3982
310.3966
310.3457
310.3798
310.3682
310.2396
310.3001
310.2618
310.2515
310.216
310.2569
310.3876
310.3703
310.3929
310.4301
310.43
310.4354
310.4332
310.4401
310.4385
310.4047
310.4217
310.41
310.298
310.3417
310.3034
310.2616
310.2192
310.2601
310.3976
310.3734
310.3961
310.4402
310.4332
310.4386
310.4433
310.4433
310.4418
310.4148
310.4249
310.4133
310.3082
310.3449
310.3066
310.2434
310.1908
310.2318
310.3794
310.3451
310.3677
310.4218
310.4046
310.41
310.4249
310.4146
310.413
310.3964
310.3962
310.3846
310.2897
310.3163
310.278
310.1649
310.0874
310.1278
310.2991
310.2386
310.2607
310.3409
310.297
310.3024
310.3438
310.3069
310.3053
310.3154
310.2884
310.2768
310.2098
310.2095
310.1719
310.2512
310.2322
310.1954
310.2887
310.2514
310.2334
310.1966
310.2889
310.2994
310.3761
310.3376
310.3375
310.216
310.1169
310.1227
310.1242
310.1591
310.1604
310.1769
310.263
310.2378
310.1648
310.26
310.2016
310.3
310.2232
310.2635
310.2398
310.1671
310.2608
310.2035
310.3006
310.2239
310.3117
310.3875
310.3088
310.3089
310.3494
310.3494
310.2714
310.3561
310.3113
310.2995
310.3679
310.3891
310.4057
310.367
310.4279
310.4053
310.4559
310.417
310.4442
310.3507
310.2665
310.2514
310.2888
310.2884
310.3288
310.3106
310.3669
310.3164
310.2677
310.3385
310.3046
310.3785
310.3268
310.4004
310.4168
310.3378
310.398
310.3785
310.4389
310.3597
310.4166
310.4667
310.3876
310.4143
310.4282
310.4551
310.376
310.3845
310.3295
310.3281
310.386
310.4304
310.4639
310.4251
310.4692
310.4336
310.4738
310.435
310.4724
310.3919
310.3245
310.2929
310.3466
310.3299
310.3866
310.3519
310.3951
310.3345
310.2961
310.3565
310.3331
310.3965
310.3551
310.4416
310.4748
310.3957
310.4394
310.4363
310.4801
310.401
310.4447
310.4846
310.4056
310.4425
310.4461
310.4832
310.4042
310.3809
310.3189
310.3243
310.3754
310.4333
310.4737
310.4349
310.4721
310.43
310.4635
310.4246
310.4688
310.3948
310.3344
310.2958
310.3564
310.3327
310.3964
310.3548
310.3915
310.3239
310.2924
310.3461
310.3294
310.3861
310.3515
310.4444
310.4845
310.4055
310.4423
310.446
310.4829
310.4039
310.4411
310.4744
310.3952
310.439
310.4358
310.4797
310.4006
310.3397
310.2613
310.283
310.318
310.4051
310.4555
310.4166
310.444
310.3891
310.4062
310.3673
310.428
310.3665
310.3158
310.2672
310.338
310.3042
310.378
310.3265
310.3506
310.2666
310.2512
310.289
310.2882
310.329
310.3105
310.4164
310.4664
310.3872
310.4142
310.4278
310.455
310.3758
310.4005
310.4174
310.3382
310.3983
310.3789
310.4391
310.3598
310.2047
310.1063
310.1515
310.1519
310.3004
310.3771
310.3383
310.3388
310.2523
310.2339
310.1966
310.2903
310.2633
310.2381
310.1646
310.2603
310.2017
310.3005
310.2233
310.2158
310.1146
310.1214
310.1211
310.1584
310.1585
310.176
310.3124
310.3885
310.3093
310.3096
310.3501
310.3505
310.2718
310.2637
310.2389
310.1645
310.2607
310.2022
310.3012
310.2234
310.3884
310.4054
310.3666
310.4273
310.3555
310.3114
310.2998
310.367
310.4044
310.4548
310.4434
310.4159
310.3507
310.2683
310.2894
310.2534
310.3291
310.2899
310.311
310.3999
310.4166
310.3378
310.3976
310.3783
310.4384
310.3594
310.3666
310.3174
310.2694
310.3384
310.3058
310.3781
310.327
310.4159
310.4657
310.4136
310.3868
310.4543
310.4273
310.3754
310.4957
310.4854
310.4737
310.5074
310.4955
310.4846
310.4731
310.5069
310.5118
310.535
310.5235
310.5233
310.4901
310.446
310.4274
310.4272
310.4682
310.4679
310.4494
310.5064
310.4961
310.4438
310.4775
310.4845
310.5181
310.4658
310.5061
310.4953
310.4432
310.477
310.4839
310.5176
310.4655
310.5225
310.5457
310.4937
310.4935
310.5342
310.534
310.482
310.5239
310.5033
310.5019
310.5254
310.5369
310.5431
310.5316
310.5485
310.5401
310.5531
310.5415
310.5516
310.5315
310.5042
310.4689
310.4857
310.5095
310.5262
310.491
310.5346
310.514
310.472
310.4956
310.5126
310.536
310.4942
310.5476
310.5538
310.5019
310.5188
310.5423
310.5591
310.5072
310.5507
310.5637
310.5118
310.522
310.5522
310.5622
310.5104
310.5205
310.4931
310.4984
310.5152
310.5399
310.553
310.5414
310.5514
310.5366
310.5429
310.5313
310.5482
310.5344
310.5139
310.4718
310.4955
310.5124
310.5359
310.494
310.5312
310.5039
310.4686
310.4854
310.5091
310.5259
310.4907
310.5505
310.5636
310.5118
310.5218
310.5521
310.5621
310.5102
310.5473
310.5536
310.5017
310.5186
310.5421
310.5589
310.507
310.4798
310.4358
310.4576
310.4579
310.5119
310.535
310.5234
310.5235
310.496
310.4857
310.4741
310.5075
310.5066
310.4959
310.4438
310.4774
310.4845
310.518
310.466
310.4906
310.4469
310.4278
310.4281
310.4686
310.4689
310.45
310.5227
310.5457
310.4937
310.4938
310.5341
310.5343
310.4822
310.5068
310.4966
310.4443
310.4778
310.485
310.5183
310.4662
310.3415
310.263
310.3195
310.2851
310.4065
310.4565
310.4449
310.4181
310.3578
310.3132
310.3014
310.3695
310.4016
310.4178
310.3388
310.3989
310.3797
310.4398
310.3607
310.3521
310.2678
310.2897
310.2519
310.3302
310.2897
310.3116
310.4177
310.4675
310.4151
310.3885
310.4559
310.4293
310.3769
310.3682
310.3177
310.2682
310.3394
310.306
310.3798
310.3278
310.4291
310.4628
310.4239
310.468
310.3835
310.3295
310.328
310.385
310.4323
310.4726
310.4712
310.4338
310.3913
310.3254
310.3464
310.2943
310.386
310.3307
310.3517
310.4404
310.4736
310.3948
310.4382
310.4352
310.4789
310.4
310.3945
310.3354
310.2975
310.3563
310.3339
310.396
310.3548
310.4436
310.4835
310.4414
310.4047
310.482
310.445
310.4032
310.5365
310.543
310.5313
310.5482
310.5232
310.5024
310.5009
310.5247
310.5396
310.5529
310.5514
310.5411
310.5307
310.5032
310.485
310.4679
310.5255
310.5084
310.4902
310.5471
310.5536
310.5015
310.5185
310.5419
310.5588
310.5067
310.5338
310.513
310.471
310.4948
310.5116
310.5353
310.4934
310.5502
310.5634
310.5217
310.5113
310.562
310.5517
310.5099
310.5648
310.561
310.5596
310.5663
310.5648
310.561
310.5595
310.5663
310.568
310.5709
310.5695
310.5695
310.5723
310.5617
310.5268
310.5267
310.567
310.5669
310.5321
310.5754
310.5716
310.53
310.5367
310.5702
310.5769
310.5353
310.5754
310.5715
310.5299
310.5367
310.5701
310.5769
310.5352
310.5786
310.5815
310.5399
310.5399
310.58
310.58
310.5384
310.5615
310.5509
310.5562
310.5562
310.5679
310.5709
310.5694
310.5693
310.5646
310.5608
310.5593
310.5661
310.5753
310.5716
310.5299
310.5367
310.57
310.5768
310.5351
310.5721
310.5616
310.5266
310.5266
310.5668
310.5668
310.5319
310.5784
310.5814
310.5399
310.5398
310.58
310.5799
310.5383
310.5753
310.5715
310.5298
310.5366
310.57
310.5767
310.5351
310.5208
310.4937
310.5155
310.499
310.54
310.5529
310.5514
310.5414
310.524
310.5037
310.5022
310.5254
310.5475
310.5537
310.5019
310.5187
310.5423
310.5589
310.5072
310.5316
310.5046
310.4858
310.4693
310.5263
310.5098
310.4911
310.5507
310.5636
310.5218
310.5118
310.5621
310.5522
310.5104
310.5347
310.5145
310.4725
310.4958
310.513
310.5362
310.4943
310.383
310.3214
310.3776
310.3268
310.4347
310.4745
310.473
310.4362
310.3863
310.3317
310.3301
310.3878
310.4426
310.4755
310.3966
310.4401
310.4373
310.4808
310.4019
310.3933
310.3259
310.3475
310.2935
310.3879
310.3313
310.3529
310.4458
310.4854
310.4432
310.4066
310.484
310.4473
310.4051
310.3965
310.3361
310.2968
310.3576
310.3346
310.398
310.3561
310.4323
310.4726
310.4338
310.4711
310.3803
310.3194
310.3248
310.3749
310.4291
310.4627
310.468
310.4238
310.3945
310.3354
310.3563
310.2975
310.396
310.3339
310.3548
310.4435
310.4834
310.4046
310.4414
310.445
310.482
310.4032
310.3913
310.3253
310.2942
310.3463
310.3307
310.386
310.3516
310.4404
310.4736
310.4382
310.3947
310.4788
310.4351
310.4
310.5396
310.5528
310.5411
310.5514
310.52
310.4925
310.4977
310.5148
310.5364
310.5429
310.5482
310.5312
310.5338
310.513
310.4948
310.471
310.5353
310.5115
310.4934
310.5502
310.5634
310.5113
310.5217
310.5517
310.5619
310.5099
310.5307
310.5032
310.4678
310.4849
310.5084
310.5254
310.4902
310.5471
310.5535
310.5185
310.5014
310.5588
310.5418
310.5067
310.568
310.5709
310.5695
310.5694
310.5616
310.551
310.5563
310.5564
310.5648
310.561
310.5663
310.5595
310.5754
310.5715
310.5367
310.5298
310.5769
310.57
310.5352
310.5786
310.5815
310.5399
310.5399
310.58
310.58
310.5384
310.5722
310.5616
310.5267
310.5267
310.5669
310.567
310.532
310.5754
310.5716
310.5367
310.5299
310.5768
310.5701
310.5352
310.5646
310.5608
310.5661
310.5593
310.5646
310.5609
310.5662
310.5594
310.5614
310.5508
310.5561
310.5561
310.5784
310.5814
310.5398
310.5398
310.5799
310.58
310.5383
310.5752
310.5715
310.5366
310.5298
310.5767
310.57
310.5351
310.5753
310.5715
310.5366
310.5298
310.5768
310.57
310.5351
310.5721
310.5615
310.5266
310.5266
310.5668
310.5668
310.5319
310.5239
310.5036
310.5254
310.5021
310.5367
310.5429
310.5482
310.5314
310.5207
310.4936
310.4989
310.5154
310.5507
310.5635
310.5118
310.5218
310.5521
310.5621
310.5103
310.5347
310.5145
310.4958
310.4724
310.5362
310.513
310.4943
310.5475
310.5536
310.5186
310.5018
310.5589
310.5422
310.5071
310.5315
310.5045
310.4692
310.4858
310.5098
310.5263
310.4911
310.3862
310.3316
310.3878
310.3301
310.4315
310.4644
310.4698
310.4261
310.3829
310.3213
310.3267
310.3775
310.4458
310.4854
310.4066
310.4432
310.4473
310.4839
310.4051
310.3965
310.3361
310.3576
310.2968
310.398
310.3345
310.3561
310.4426
310.4754
310.44
310.3965
310.4807
310.4372
310.4018
310.3932
310.3258
310.2934
310.3474
310.3312
310.3878
310.3528
310.4043
310.4547
310.4158
310.4432
310.3393
310.2619
310.2836
310.3176
310.3883
310.4052
310.4272
310.3664
310.3665
310.3173
310.3383
310.2693
310.378
310.3057
310.3268
310.4157
310.4657
310.3867
310.4135
310.4272
310.4542
310.3753
310.3506
310.268
310.2532
310.2892
310.2897
310.3289
310.3109
310.3998
310.4164
310.3975
310.3376
310.4382
310.3781
310.3593
310.5117
310.535
310.5232
310.5234
310.4792
310.4349
310.4569
310.4572
310.4956
310.4852
310.5073
310.4735
310.506
310.4952
310.477
310.4431
310.5175
310.4838
310.4654
310.5224
310.5456
310.4934
310.4936
310.5339
310.5341
310.4819
310.49
310.4459
310.427
310.4272
310.4678
310.468
310.4493
310.5063
310.4959
310.4774
310.4436
310.518
310.4843
310.4657
310.54
310.553
310.5515
310.5414
310.5206
310.4933
310.5154
310.4986
310.5238
310.5031
310.5252
310.5017
310.5475
310.5537
310.5187
310.5018
310.559
310.5422
310.5071
310.5506
310.5636
310.5219
310.5117
310.5622
310.552
310.5103
310.5313
310.504
310.4855
310.4687
310.526
310.5093
310.4908
310.5345
310.5138
310.4954
310.4718
310.5359
310.5124
310.494
310.5365
310.5428
310.5481
310.5312
310.5235
310.503
310.5251
310.5014
310.5203
310.4928
310.515
310.4982
310.5504
310.5635
310.5217
310.5116
310.562
310.552
310.5101
310.5472
310.5535
310.5185
310.5016
310.5588
310.542
310.5069
310.5342
310.5137
310.4954
310.4716
310.5358
310.5122
310.4938
310.531
310.5036
310.4853
310.4684
310.5258
310.5089
310.4906
310.4958
310.4856
310.5074
310.474
310.4956
310.4849
310.507
310.4734
310.4796
310.4356
310.4578
310.4574
310.5226
310.5456
310.4938
310.4936
310.5342
310.534
310.4821
310.5067
310.4965
310.4777
310.4442
310.5182
310.4849
310.4661
310.5064
310.4957
310.4773
310.4436
310.5178
310.4843
310.4658
310.4905
310.4466
310.4279
310.4276
310.4687
310.4684
310.4498
310.3576
310.313
310.3693
310.3012
310.3901
310.4064
310.4285
310.368
310.3413
310.2627
310.2848
310.3192
310.4176
310.4674
310.3884
310.415
310.4292
310.4558
310.3767
310.368
310.3175
310.3393
310.268
310.3797
310.3058
310.3276
310.4014
310.4176
310.3987
310.3385
310.4396
310.3794
310.3605
310.3518
310.2675
310.2517
310.2894
310.2895
310.3299
310.3113
310.2991
310.3759
310.3373
310.3373
310.2039
310.107
310.152
310.1511
310.2507
310.2318
310.2883
310.1949
310.2631
310.2395
310.2606
310.1667
310.3003
310.2031
310.2235
310.3114
310.3873
310.3086
310.3084
310.3492
310.3491
310.271
310.2155
310.1162
310.1237
310.122
310.1599
310.1585
310.1764
310.2625
310.2373
310.2596
310.1642
310.2996
310.2011
310.2227
310.405
310.4556
310.4439
310.4167
310.3395
310.2607
310.3174
310.2827
310.3558
310.3108
310.3675
310.299
310.4001
310.4166
310.3978
310.3374
310.4386
310.3781
310.3594
310.4163
310.4665
310.4141
310.3873
310.4549
310.4279
310.3756
310.3503
310.266
310.2883
310.2508
310.3284
310.2879
310.3102
310.3664
310.3159
310.338
310.267
310.3781
310.3041
310.3264
310.4333
310.4735
310.4721
310.4347
310.381
310.319
310.3756
310.3244
310.3841
310.329
310.3856
310.3276
310.4412
310.4745
310.4391
310.3954
310.4798
310.436
310.4007
310.4444
310.4844
310.4423
310.4052
310.483
310.4458
310.4038
310.3915
310.324
310.3461
310.2923
310.3862
310.3294
310.3515
310.3947
310.334
310.356
310.2955
310.3961
310.3326
310.3546
310.4296
310.4632
310.4685
310.4243
310.3838
310.3289
310.3854
310.3272
310.3804
310.3184
310.375
310.3239
310.4441
310.4843
310.442
310.4051
310.4827
310.4457
310.4035
310.4408
310.4741
310.4388
310.3949
310.4794
310.4355
310.4002
310.3943
310.3339
310.3559
310.2951
310.396
310.3322
310.3543
310.391
310.3234
310.3456
310.2918
310.3856
310.3289
310.351
310.3887
310.4059
310.4277
310.367
310.3553
310.3102
310.3669
310.2986
310.3393
310.2607
310.3176
310.2825
310.416
310.4662
310.414
310.3869
310.4547
310.4275
310.3754
310.4001
310.4171
310.398
310.3378
310.4388
310.3785
310.3594
310.3661
310.3153
310.3375
310.2666
310.3776
310.3037
310.326
310.3502
310.266
310.2884
310.2505
310.3286
310.2876
310.31
310.2519
310.2335
310.2899
310.1961
310.2513
310.232
310.2888
310.1952
310.2042
310.1057
310.1513
310.1509
310.312
310.3882
310.3093
310.3089
310.3502
310.3497
310.2713
310.2632
310.2385
310.2604
310.164
310.3008
310.2017
310.2229
310.2628
310.2375
310.2598
310.1639
310.3
310.2011
310.2227
310.2152
310.114
310.1205
310.1207
310.1579
310.1578
310.1754
310.0855
310.1642
310.1274
310.0878
310.1652
310.1282
310.2096
310.2098
310.1723
310.1891
310.2433
310.2316
310.2389
310.2993
310.2611
310.2892
310.3158
310.2774
310.2177
310.2615
310.2601
310.2974
310.3412
310.3027
310.3074
310.3444
310.3059
310.2139
310.2509
310.2564
310.3072
310.3441
310.3056
310.2969
310.3408
310.3023
310.1724
310.1933
310.2151
310.2887
310.3157
310.2772
310.2392
310.2995
310.261
310.042
310.0413
310.0825
310.2099
310.2101
310.1723
310.0843
310.1643
310.127
310.239
310.299
310.2609
310.1909
310.2435
310.2319
310.3152
310.2886
310.277
310.3457
310.3799
310.3681
310.3452
310.3795
310.3678
310.3964
310.3962
310.3845
310.3744
310.3983
310.3968
310.4047
310.4219
310.4101
310.4148
310.4251
310.4133
310.3709
310.388
310.3933
310.4147
310.4249
310.4131
310.4045
310.4216
310.4099
310.3295
310.3298
310.3519
310.3963
310.3964
310.3847
310.3462
310.3801
310.3684
310.1936
310.1725
310.2157
310.3164
310.2898
310.2781
310.1888
310.2437
310.232
310.2966
310.3401
310.3019
310.2192
310.2616
310.2601
310.3433
310.3066
310.3051
310.4043
310.4216
310.4097
310.3735
310.3976
310.3961
310.4248
310.4144
310.4129
310.4333
310.4402
310.4387
310.4332
310.4402
310.4387
310.4434
310.4434
310.4419
310.4299
310.4299
310.4353
310.4434
310.4433
310.4418
310.4331
310.44
310.4385
310.3883
310.3715
310.3937
310.4249
310.4148
310.4133
310.3748
310.3985
310.397
310.252
310.2143
310.2574
310.345
310.3082
310.3067
310.2176
310.2622
310.2607
310.3066
310.3433
310.3051
310.2159
310.2515
310.2568
310.3401
310.2966
310.3019
310.4143
310.4248
310.4128
310.3702
310.3875
310.3929
310.4216
310.4043
310.4096
310.4434
310.4434
310.4419
310.43
310.43
310.4354
310.4401
310.4333
310.4387
310.44
310.4331
310.4385
310.4401
310.4331
310.4385
310.4299
310.4298
310.4352
310.3984
310.3747
310.3969
310.4217
310.4046
310.41
310.3715
310.3883
310.3937
310.2622
310.2176
310.2606
310.3417
310.2979
310.3034
310.2142
310.2519
310.2573
310.2885
310.3151
310.2769
310.1747
310.1939
310.2157
310.2988
310.2388
310.2607
310.3961
310.3963
310.3844
310.3288
310.329
310.3513
310.3798
310.3456
310.3679
310.425
310.4147
310.4132
310.3881
310.371
310.3935
310.3981
310.3742
310.3967
310.4216
310.4044
310.4098
310.3981
310.374
310.3965
310.3878
310.3707
310.3932
310.38
310.3461
310.3683
310.3796
310.3455
310.368
310.3296
310.3293
310.3517
310.2436
310.1886
310.2318
310.2999
310.2394
310.2616
310.1722
310.1933
310.2155
310.2095
310.2092
310.1719
310.0447
310.043
310.0835
310.1637
310.0848
310.1269
310.3156
310.2888
310.2771
310.1927
310.172
310.2147
310.2428
310.1884
310.2311
310.3441
310.307
310.3056
310.251
310.2138
310.2564
310.261
310.217
310.2596
310.3405
310.2965
310.3019
310.2609
310.2166
310.2592
310.2504
310.2133
310.2559
310.2992
310.2388
310.2606
310.2423
310.1879
310.2307
310.1928
310.1717
310.2145
310.164
310.0838
310.1265
310.1637
310.0844
310.1266
310.0407
310.0413
310.082
)
;

boundaryField
{
    solid_to_air
    {
        type            compressible::turbulentTemperatureRadCoupledMixed;
        refValue        nonuniform List<scalar> 
1536
(
300.9627
300.961
300.9626
300.9629
300.9611
300.9601
300.933
300.8348
300.8031
300.7985
300.801
300.8274
300.9371
300.8089
300.792
300.7925
300.7905
300.8009
300.9383
300.8051
300.7921
300.794
300.7913
300.7976
300.9365
300.812
300.7924
300.7921
300.7908
300.804
300.9343
300.8514
300.8155
300.809
300.8135
300.8447
301.5368
301.5192
300.5961
300.6245
300.6224
300.6408
300.6472
300.6451
300.6521
300.6387
300.6429
300.6217
300.6083
301.5269
300.6224
300.6146
300.9208
300.9602
300.9676
300.9551
300.9013
300.6298
300.6376
300.6385
300.9587
301.0029
301.0119
300.9986
300.9392
300.6466
300.6413
300.6431
300.9656
301.0108
301.0202
301.0067
300.9461
300.6508
300.6347
300.6339
300.9526
300.9965
301.0053
300.992
300.9329
300.6435
300.6182
300.5997
300.898
300.9361
300.9433
300.9311
300.8793
300.625
301.5368
300.6244
300.6407
300.645
300.6386
300.6216
301.9434
300.6995
300.7026
300.7153
300.718
300.7219
300.7219
300.7186
300.716
300.7039
300.7001
301.8929
301.9065
300.6909
300.9637
300.9345
300.8715
300.9627
300.8514
300.8205
300.9631
300.8156
300.8096
300.9616
300.8091
300.8112
300.9584
300.8135
300.8314
300.9958
300.8447
300.9945
301.9422
300.7126
300.6942
300.706
300.8553
300.9366
300.8302
300.8069
300.8121
300.7939
300.7989
300.7925
300.7921
300.7995
300.7921
300.7911
300.8151
300.7908
300.7958
300.991
300.804
300.99
300.7162
300.7294
300.7085
300.712
300.8259
300.9384
300.8207
300.793
300.8051
300.7924
300.7924
300.7921
300.7938
300.7911
300.794
300.7922
300.7937
300.7913
300.7918
300.9895
300.7976
300.9893
300.7322
300.7361
300.712
300.7085
300.8207
300.9371
300.8259
300.7924
300.8089
300.7928
300.7939
300.7919
300.7923
300.7923
300.7924
300.7911
300.7918
300.7905
300.7937
300.9894
300.8009
300.9895
300.7361
300.7322
300.7059
300.694
300.8301
300.9329
300.8553
300.7938
300.8347
300.8067
300.7921
300.803
300.7987
300.7911
300.7984
300.7995
300.7958
300.801
300.8151
300.9901
300.8273
300.991
300.7294
300.7162
300.6907
301.9063
300.8713
300.9625
300.9635
301.9432
300.6992
300.8203
300.961
300.9626
300.7024
300.7151
300.8094
300.9625
300.963
300.7178
300.7217
300.8111
300.9628
300.9615
300.7217
300.7184
300.8313
300.9612
300.9583
300.7158
300.7037
300.9946
300.9601
300.9958
300.7125
300.6999
301.9419
301.8927
300.6204
300.6071
300.6184
300.5999
300.8766
300.6379
300.6427
300.8983
300.9306
300.6451
300.6522
300.9364
300.9438
300.6416
300.6476
300.9435
300.9376
300.6261
300.6233
300.9314
300.9009
301.5036
300.5978
300.8795
300.6251
300.6173
300.898
300.6348
300.634
300.9288
300.9543
300.9528
300.9904
300.9679
300.9967
301.0058
300.9615
301.0055
300.9987
300.9236
300.9922
300.9565
300.633
300.933
300.6436
300.6536
300.9347
300.6413
300.6432
300.9414
300.9967
300.9657
301.0045
301.0122
301.0109
301.0205
301.0053
301.0203
301.0134
300.9628
301.0068
300.9699
300.6584
300.9462
300.6508
300.6633
300.9414
300.6375
300.6384
300.9346
301.0046
300.9586
300.9966
301.0205
301.0028
301.0121
301.0134
301.0119
301.0051
300.9699
300.9986
300.9627
300.6633
300.9392
300.6466
300.6584
300.9287
300.6223
300.6145
300.8977
300.9904
300.9205
300.954
301.0057
300.9599
300.9677
300.9987
300.9674
300.9613
300.9564
300.9549
300.9234
300.6535
300.9011
300.6297
300.6329
300.8763
301.5191
300.596
300.6202
300.6069
300.9303
300.6222
300.6377
300.6425
300.9436
300.647
300.6449
300.6521
300.9374
300.6519
300.6414
300.6475
300.9007
300.6427
300.626
300.6232
300.6172
300.6082
301.5267
301.5033
300.5977
300.9414
300.9955
300.9703
301.7517
301.7299
300.9643
300.9431
300.8947
300.9619
300.9019
300.8267
300.8305
300.8765
300.963
300.8793
300.8384
300.84
300.8729
300.9626
300.8729
300.8413
300.841
300.8805
300.9601
300.8776
300.837
300.8343
300.9045
300.9663
300.8972
300.8256
300.8385
301.7628
300.9792
300.9
300.9048
300.9345
300.8109
300.8145
300.8111
300.8211
300.8237
300.7949
300.8007
300.7964
300.7934
300.7984
300.7935
300.7959
300.8034
300.7944
300.8323
300.8436
300.816
300.8473
300.8512
300.8877
300.8896
300.9379
300.8222
300.8237
300.7981
300.7995
300.8068
300.792
300.7918
300.7918
300.7927
300.7921
300.793
300.7899
300.7901
300.7906
300.8124
300.8149
300.799
300.859
300.8605
300.8864
300.8859
300.9382
300.8249
300.8245
300.7973
300.797
300.8056
300.7922
300.7925
300.7919
300.7933
300.7937
300.7935
300.79
300.7901
300.7909
300.811
300.8104
300.798
300.8618
300.8613
300.8956
300.8925
300.9352
300.8203
300.8175
300.8052
300.8017
300.8166
300.7925
300.7919
300.7935
300.7918
300.7918
300.792
300.7924
300.7908
300.7917
300.8243
300.8189
300.8086
300.8572
300.8544
300.9171
300.9114
300.9412
300.8091
300.8238
300.857
300.8372
300.8695
300.8314
300.8123
300.835
300.8274
300.809
300.8273
300.8372
300.817
300.8332
300.8747
300.8596
300.8635
300.8454
300.8597
301.7514
300.9641
300.8265
300.8303
300.8383
300.8398
300.8412
300.8408
300.8369
300.8342
300.8255
300.8384
300.9231
300.6357
300.735
300.6287
300.7286
300.9319
300.631
300.6296
300.9206
300.9548
300.6499
300.643
300.9516
300.9569
300.6515
300.6446
300.9574
300.9411
300.6382
300.6353
300.9469
300.8867
300.6037
300.6307
300.9045
300.9335
300.9226
300.6229
300.6271
300.9517
300.9361
300.9354
300.9821
300.9647
300.9773
300.9847
300.967
300.9854
300.9638
300.9473
300.9723
300.8892
300.8765
300.9156
300.9555
300.9526
300.641
300.6395
300.9808
300.9764
300.9628
301.0132
301.0084
301.0077
301.0163
301.0113
301.017
300.9939
300.9893
301.0035
300.914
300.9105
300.9432
300.9572
300.9579
300.6425
300.6407
300.9827
300.9838
300.9646
301.0152
301.0164
301.0097
301.0184
301.0197
301.0191
300.996
300.9971
301.0056
300.9159
300.9167
300.9452
300.9411
300.9471
300.6292
300.6312
300.9612
300.97
300.9445
300.9919
301.0019
300.9869
300.9946
301.0047
300.9953
300.9736
300.9829
300.9823
300.8979
300.9047
300.9252
300.8874
300.9043
300.5965
300.6285
300.8871
300.9126
300.8743
300.9119
300.9404
300.9082
300.914
300.9427
300.9145
300.897
300.9238
300.9034
300.8368
300.8561
300.8565
300.8252
300.8411
302.0209
300.8852
300.9509
300.7472
300.7179
300.7692
300.8367
300.8338
300.7492
300.7073
300.7532
300.7603
300.7117
300.7572
300.8414
300.8409
300.7625
300.72
300.7643
300.7659
300.7213
300.7653
300.8388
300.8402
300.7658
300.7214
300.7654
300.7629
300.7204
300.7645
300.8276
300.8312
300.7607
300.7127
300.7578
300.7501
300.7085
300.7541
301.7272
300.9521
300.7473
300.7147
300.7647
301.9821
300.8662
300.9293
300.8092
300.824
301.9917
300.8654
300.9257
300.7343
300.7073
300.7538
300.919
300.9705
300.9115
300.9171
300.9413
300.9115
300.8978
300.8859
300.8888
300.8882
300.9619
300.8836
300.857
300.8695
300.8372
300.8473
300.8406
300.8272
300.8744
300.963
300.8734
300.8315
300.8351
300.8124
300.8292
300.828
300.8105
300.8736
300.9623
300.8751
300.8275
300.8274
300.809
300.8284
300.8303
300.8097
300.8846
300.9595
300.8898
300.8373
300.8333
300.8171
300.8433
300.8517
300.8226
300.9328
300.9941
301.0252
300.8747
300.8635
300.8596
300.9023
301.0008
300.8913
300.8454
300.8598
302.0356
300.8929
300.9654
300.7666
300.7296
300.7871
300.8204
300.8176
300.7366
300.6986
300.7405
300.7471
300.7028
300.7442
300.8667
300.8762
300.8438
300.8956
300.9353
300.8926
300.8592
300.8357
300.8539
300.8037
300.8124
300.7992
300.8053
300.8167
300.8018
300.7991
300.7956
300.7965
300.7941
300.7994
300.7938
300.7926
300.7935
300.7919
300.7922
300.7921
300.7919
300.7934
300.7986
300.7937
300.7918
300.792
300.7918
300.7916
300.7915
300.7914
300.7988
300.8075
300.805
300.7924
300.7917
300.7908
300.7943
300.7993
300.7919
300.8713
300.8796
300.9908
300.8242
300.8086
300.8189
300.8647
300.9899
300.8601
300.8572
300.8544
300.769
300.7212
300.7733
300.7806
300.7257
300.7773
300.825
300.8245
300.7492
300.7104
300.7508
300.7522
300.7115
300.7518
300.8465
300.8494
300.8231
300.8864
300.9382
300.8859
300.8447
300.8215
300.8439
300.794
300.7949
300.7924
300.7973
300.8056
300.797
300.7936
300.7923
300.7934
300.7924
300.792
300.7929
300.7923
300.7919
300.7925
300.7929
300.7934
300.7931
300.7922
300.7916
300.7914
300.7933
300.7935
300.7937
300.7927
300.7918
300.7931
300.79
300.7906
300.7925
300.79
300.7909
300.7901
300.7898
300.792
300.7898
300.8539
300.8563
300.9895
300.811
300.798
300.8103
300.8525
300.9893
300.8519
300.8618
300.8613
300.7828
300.7342
300.7846
300.7861
300.7355
300.7856
300.8221
300.8236
300.7522
300.7114
300.7517
300.7491
300.7103
300.7508
300.8447
300.8439
300.8214
300.8876
300.9378
300.8895
300.8465
300.8231
300.8494
300.7936
300.7934
300.7923
300.798
300.8067
300.7995
300.794
300.7924
300.7949
300.7929
300.7931
300.7934
300.7919
300.7917
300.7917
300.7924
300.7928