/*--------------------------------*- C++ -*----------------------------------*\
| =========                 |                                                 |
| \\      /  F ield         | OpenFOAM: The Open Source CFD Toolbox           |
|  \\    /   O peration     | Version:  2506                                  |
|   \\  /    A nd           | Website:  www.openfoam.com                      |
|    \\/     M anipulation  |                                                 |
\*---------------------------------------------------------------------------*/
FoamFile
{
    version     2.0;
    format      ascii;
    arch        "LSB;label=32;scalar=64";
    class       volScalarField;
    location    "300/airRegion";
    object      alphat;
}
// * * * * * * * * * * * * * * * * * * * * * * * * * * * * * * * * * * * * * //

dimensions      [1 -1 -1 0 0 0 0];

internalField   nonuniform List<scalar> 
85779
(
0.1066849
0.1071218
0.1068966
0.1066352
0.1063472
0.1058228
0.1043692
0.09965541
0.08708547
0.07892854
0.07744354
0.07824734
0.08109162
0.08587639
0.09171636
0.0966497
0.09791903
0.09257478
0.08336584
0.07597005
0.07386381
0.07834281
0.09260006
0.1025437
0.1051029
0.1056321
0.1052029
0.102259
0.08605614
0.02337735
0.1068068
0.1073906
0.106965
0.1063619
0.1056519
0.1044589
0.1015559
0.09388161
0.08549894
0.08094022
0.07931367
0.07976195
0.08221987
0.08657009
0.09196579
0.09656056
0.0977499
0.09267759
0.08371446
0.07654401
0.07461354
0.07833012
0.08711375
0.09847337
0.1025041
0.1033772
0.1025112
0.09805534
0.07987177
0.02195949
0.1066021
0.1068763
0.1061995
0.1053475
0.1043544
0.102694
0.09873042
0.09064348
0.08538901
0.08231419
0.08099235
0.08131503
0.0833976
0.08716531
0.09186445
0.09585562
0.09680175
0.09199324
0.08322391
0.07598593
0.0736267
0.07628165
0.0833025
0.09569912
0.1001308
0.1011076
0.1002913
0.09617891
0.07959617
0.02219912
0.10655
0.1066047
0.1057283
0.1046928
0.1034734
0.1013283
0.09624214
0.08831695
0.08443952
0.08239437
0.0816159
0.08210286
0.08401932
0.08731339
0.09132268
0.09463272
0.09522531
0.0905733
0.0818368
0.07432255
0.07146733
0.07354383
0.08036676
0.09415305
0.09876589
0.09983882
0.09925076
0.09575617
0.08052116
0.02239566
0.1065691
0.1065258
0.105532
0.1043731
0.1029782
0.1003323
0.09367504
0.08682468
0.08342466
0.08190812
0.08153702
0.08222427
0.08407065
0.08698297
0.09034208
0.09293175
0.09307543
0.08848614
0.07973233
0.07199958
0.06895485
0.07105636
0.07836158
0.09332658
0.09810468
0.09929541
0.09893381
0.09590598
0.08146373
0.02253329
0.1066007
0.1065198
0.1054621
0.104222
0.102692
0.09970174
0.09210373
0.08551171
0.08254976
0.08139326
0.08126577
0.08205175
0.08378907
0.08631469
0.08900578
0.09080693
0.09039913
0.08581152
0.07710046
0.06935471
0.06648191
0.06899338
0.07696477
0.09285136
0.09780151
0.09911183
0.09892174
0.09616253
0.08193069
0.02263032
0.1066255
0.1065297
0.1054348
0.1041338
0.1024632
0.09901581
0.09057223
0.08494231
0.08231825
0.0812617
0.08114595
0.08186285
0.08338584
0.08545821
0.087412
0.08832207
0.08725003
0.08262386
0.07407158
0.0665534
0.06414277
0.06725645
0.07589918
0.09253362
0.09765453
0.09907379
0.09900704
0.0964088
0.08225479
0.02269631
0.1066409
0.1065372
0.105418
0.1040695
0.1022726
0.09841298
0.08949421
0.08485118
0.08246045
0.08133995
0.0811136
0.08167963
0.08293191
0.08449956
0.08564133
0.08555054
0.08370589
0.07901253
0.0707434
0.06366934
0.06192469
0.06572328
0.07499677
0.09227859
0.09756436
0.0990796
0.09910225
0.0966047
0.08248351
0.02274064
0.1066485
0.1065389
0.1054029
0.1040227
0.1021527
0.09808781
0.08867184
0.08431507
0.08216076
0.08114607
0.08093537
0.08142077
0.08243353
0.08349339
0.08377811
0.08260529
0.07990951
0.07512972
0.06723927
0.06076498
0.05980622
0.06430999
0.07416751
0.09203862
0.09748553
0.09908684
0.09917689
0.09674517
0.08263883
0.02276989
0.1066512
0.106536
0.1053866
0.1039818
0.1020625
0.09789541
0.08819767
0.08385549
0.08180707
0.08088454
0.08071409
0.08114997
0.08195117
0.08252263
0.08195391
0.07968847
0.0761246
0.07124487
0.06376438
0.05794516
0.05779417
0.06297079
0.07336419
0.09177997
0.09739584
0.09907986
0.09922437
0.09683803
0.08273949
0.02278857
0.1066513
0.1065301
0.1053679
0.1039367
0.1019618
0.09770331
0.08785798
0.08355671
0.08158798
0.08072464
0.08057106
0.08095102
0.0815584
0.08169311
0.08036201
0.07711819
0.07276258
0.06776603
0.06063596
0.05538691
0.05594053
0.06168478
0.07252886
0.09143097
0.09726835
0.09905068
0.0992463
0.09689399
0.08280098
0.02279995
0.1066502
0.106523
0.1053463
0.1038784
0.1018091
0.09739474
0.08759858
0.08346149
0.08156899
0.08072174
0.08054568
0.08085418
0.08129682
0.0811
0.07921273
0.07525797
0.07029722
0.06517387
0.05825949
0.05334822
0.05436918
0.06047276
0.0715281
0.09065623
0.09700824
0.0989819
0.09924456
0.09692267
0.08283549
0.02280638
0.106649
0.1065164
0.1053245
0.1038041
0.1015569
0.09676138
0.08749151
0.08351913
0.08163577
0.08077448
0.08056931
0.08082118
0.08116141
0.08079126
0.07864171
0.07436099
0.06910116
0.06389975
0.05704989
0.05215118
0.05333686
0.05957289
0.07038365
0.08789817
0.09632493
0.09883439
0.09921894
0.09693186
0.0828523
0.02280964
0.106648
0.1065116
0.1053086
0.1037451
0.1012233
0.09514666
0.08752555
0.08359698
0.08171013
0.08083433
0.08060164
0.08082054
0.08113806
0.08078346
0.0787149
0.07456738
0.06941242
0.06424394
0.05730241
0.05204469
0.05306835
0.0592289
0.06951434
0.08456941
0.0955703
0.09866543
0.09918192
0.0969295
0.08285849
0.02281099
0.1066477
0.1065095
0.1053012
0.1037216
0.1011538
0.09501032
0.0874807
0.08364011
0.08176546
0.08086813
0.08061223
0.08083068
0.08121656
0.08108309
0.07946986
0.0759589
0.07134388
0.066304
0.05902647
0.05288935
0.05316626
0.05889212
0.06874108
0.08516202
0.09538562
0.09857857
0.09915675
0.09692434
0.082859
0.02281127
0.1066481
0.1065106
0.1053038
0.1037339
0.1013324
0.09626211
0.08732129
0.08359707
0.08174345
0.08083549
0.08058045
0.08084148
0.08138177
0.08164582
0.08080155
0.07834068
0.07461311
0.06978982
0.06199852
0.05465667
0.05379188
0.0589442
0.0685491
0.08336609
0.09515432
0.09853842
0.09914494
0.09691941
0.08285641
0.02281091
0.1066491
0.1065146
0.1053152
0.1037567
0.1013438
0.09613381
0.08751308
0.08360021
0.08166281
0.08074739
0.08051983
0.08085887
0.08160596
0.08235221
0.08240735
0.0811685
0.07849355
0.07395291
0.06557563
0.05702352
0.05492875
0.05942979
0.06878541
0.08508925
0.09534627
0.09855988
0.09914567
0.09691447
0.08285068
0.02280991
0.1066506
0.1065209
0.1053344
0.1038155
0.1015179
0.09650001
0.08768823
0.08357645
0.0815732
0.08065744
0.08046673
0.08089979
0.08187198
0.08310686
0.08403748
0.08397686
0.08233958
0.0781071
0.06916909
0.05953981
0.05632673
0.06027023
0.06961409
0.08456785
0.09550462
0.0986244
0.09915708
0.0969073
0.08283955
0.02280785
0.1066524
0.1065286
0.1053589
0.1039048
0.1018511
0.09739918
0.08767671
0.08343711
0.08147272
0.08059874
0.08045787
0.08098986
0.08218304
0.08387205
0.08558414
0.08655672
0.08583303
0.08186604
0.07241719
0.06187228
0.05765677
0.06101361
0.07055563
0.0891399
0.09640104
0.09878725
0.09917966
0.09689358
0.08281861
0.0228039
0.1066538
0.1065359
0.1053791
0.1039598
0.1020088
0.09777698
0.08797958
0.08362217
0.08158826
0.08068252
0.080552
0.08116133
0.08255432
0.08464974
0.08703764
0.08887978
0.08890845
0.08512183
0.07523821
0.06402571
0.0590655
0.0620003
0.071769
0.09074096
0.0969476
0.09892346
0.09919255
0.09686423
0.08278106
0.02279689
0.106654
0.1065416
0.105396
0.103999
0.1020954
0.09795
0.08830546
0.0839522
0.0818611
0.08089958
0.0807516
0.08141628
0.08298726
0.0854473
0.08842172
0.09098955
0.09161396
0.08790973
0.07769258
0.06612567
0.06074388
0.06333171
0.07291651
0.09142108
0.09721491
0.09899245
0.09917851
0.09680811
0.08271765
0.02278515
0.1066512
0.1065442
0.1054112
0.1040367
0.102178
0.0981315
0.0887732
0.08442526
0.0822306
0.08117647
0.08099232
0.08170638
0.083451
0.08625451
0.08975384
0.09293503
0.09401916
0.09030019
0.07983833
0.06815316
0.0625333
0.06473499
0.07389176
0.09180995
0.09735875
0.09901634
0.09913476
0.09671523
0.08261631
0.02276641
0.1066433
0.1065421
0.1054258
0.1040831
0.1022963
0.09844687
0.08958431
0.08498213
0.08251719
0.0813378
0.08114299
0.08194371
0.08389036
0.08704256
0.09103245
0.09474392
0.09617499
0.09235563
0.08173031
0.07010223
0.06436573
0.06616855
0.07480817
0.09212336
0.09746404
0.09901769
0.09906255
0.09657539
0.08246159
0.02273734
0.1066276
0.106534
0.1054423
0.1041477
0.1024833
0.09902294
0.09077994
0.08520821
0.08237729
0.08119902
0.08111765
0.08208281
0.0842713
0.08778289
0.09224028
0.09641736
0.09810206
0.09411561
0.08341616
0.07200051
0.06626335
0.06769272
0.07577353
0.09242035
0.09757148
0.09901859
0.09897003
0.096381
0.08223457
0.02269343
0.1066022
0.1065233
0.105469
0.1042374
0.1027325
0.09993202
0.0933643
0.08544021
0.08245508
0.08127976
0.08121958
0.082258
0.08462448
0.08845592
0.09334474
0.09793027
0.09979024
0.09559042
0.08491821
0.07387511
0.06828267
0.06940687
0.07689417
0.0927693
0.09773333
0.09906349
0.09888806
0.09613685
0.08191241
0.02262803
0.1065702
0.1065285
0.1055375
0.1043857
0.1030133
0.1004622
0.09412859
0.08698902
0.08346644
0.08189152
0.08155769
0.08246676
0.08489109
0.08898555
0.09427644
0.09922946
0.101202
0.09675598
0.08620664
0.07570102
0.07045971
0.07143942
0.07833748
0.09327117
0.09805053
0.09925428
0.09890394
0.09588222
0.08144203
0.0225317
0.1065507
0.1066066
0.1057326
0.1047034
0.103516
0.1015305
0.09690248
0.08826828
0.08441236
0.08239998
0.08168116
0.08238185
0.08483893
0.0892127
0.09492876
0.1002417
0.102281
0.09755187
0.08717193
0.0773321
0.07271263
0.07389025
0.08037654
0.09411952
0.09872467
0.09980512
0.09922524
0.09573538
0.08050175
0.02239468
0.1066025
0.1068776
0.1062025
0.1053542
0.1043727
0.1027581
0.0989258
0.09073445
0.08542722
0.08236581
0.08110086
0.08163024
0.08422614
0.0889914
0.0952097
0.1009
0.1029693
0.09789675
0.08762421
0.07843452
0.07465789
0.07659117
0.08333257
0.09568169
0.1001014
0.1010819
0.1002711
0.0961622
0.07958187
0.02219861
0.106807
0.1073914
0.1069668
0.1063657
0.1056602
0.1044776
0.101589
0.09385708
0.08536671
0.08103438
0.07947038
0.08011316
0.08306443
0.08834994
0.09511553
0.1011667
0.1032209
0.0977384
0.08738929
0.07856152
0.07548144
0.07861459
0.0871606
0.09846829
0.1024866
0.103361
0.1024981
0.09804411
0.07986228
0.02195929
0.1066849
0.107122
0.1068972
0.1066364
0.10635
0.1058272
0.1043611
0.09940776
0.08521308
0.07952526
0.07780972
0.07866601
0.0819579
0.08763077
0.09474393
0.100981
0.1029454
0.09711157
0.08657725
0.07770401
0.07461725
0.07860848
0.09264986
0.1025441
0.1050977
0.1056271
0.1051988
0.1022552
0.0860527
0.02337733
0.1068068
0.1073906
0.1069651
0.1063619
0.1056523
0.1044631
0.1015737
0.09389082
0.08550544
0.08094523
0.07931707
0.07976926
0.08224308
0.08662898
0.09208632
0.09676094
0.09801634
0.09295965
0.08395216
0.07670486
0.07470251
0.07837239
0.08713024
0.09847699
0.1025057
0.1033782
0.1025122
0.09805695
0.07987463
0.02195981
0.1061577
0.1077669
0.1081671
0.1075057
0.1061554
0.1039139
0.09991686
0.09367289
0.08742501
0.08331411
0.08135909
0.081377
0.08340323
0.08731562
0.09230384
0.09662078
0.09778203
0.09300022
0.08425645
0.07717663
0.07525364
0.07859858
0.08569366
0.09366122
0.09810057
0.09896235
0.09636307
0.08743322
0.06363135
0.01661705
0.1052789
0.1062908
0.1068425
0.1062945
0.1048067
0.1022867
0.09813235
0.09312861
0.088458
0.08506994
0.08321075
0.08300446
0.08459078
0.08787913
0.09214351
0.09583325
0.09673253
0.09223159
0.08377507
0.07673045
0.0745053
0.07707076
0.08279885
0.08943415
0.093437
0.09401861
0.09086089
0.08135624
0.05855095
0.01594117
0.1049166
0.1052464
0.1053547
0.1045338
0.1028215
0.1001342
0.09611275
0.09175473
0.0880874
0.08544909
0.08397906
0.08384224
0.08520128
0.08797775
0.09152491
0.09450546
0.0950272
0.09070136
0.0823893
0.0751738
0.07248062
0.07435132
0.0793344
0.08558596
0.08948636
0.09020103
0.08749186
0.07908707
0.05820933
0.01636092
0.1048281
0.1048093
0.1045297
0.1033754
0.101379
0.09842445
0.09442964
0.09031312
0.08713717
0.08500188
0.08390451
0.08393564
0.08519868
0.08757244
0.09044435
0.09266935
0.0927098
0.08845559
0.08021372
0.07281661
0.06983153
0.07145025
0.07638638
0.08294172
0.08709971
0.08822757
0.0862571
0.0790637
0.05950576
0.01678556
0.1048309
0.1046738
0.1041704
0.1027746
0.1005344
0.0972835
0.09307178
0.08907173
0.08618572
0.08435873
0.08350482
0.08364776
0.08481219
0.08679696
0.08897507
0.09036432
0.08981102
0.08555906
0.077422
0.07000438
0.06706386
0.06888065
0.07421233
0.0813587
0.08592962
0.08752078
0.08618981
0.07984046
0.06090902
0.01708464
0.104851
0.1046434
0.1040211
0.1024696
0.1000395
0.0964957
0.09217191
0.08833321
0.08561174
0.08391407
0.08314062
0.08327612
0.08426616
0.08580389
0.0872066
0.08763646
0.08636661
0.08207863
0.07415484
0.06695438
0.06439285
0.06671458
0.07263179
0.08042077
0.08541072
0.08740546
0.08654081
0.08071835
0.06206055
0.01728426
0.1048664
0.1046372
0.1039482
0.1022966
0.09972676
0.09593007
0.09155993
0.08791709
0.0852956
0.08363222
0.0828521
0.0829103
0.08366833
0.08469214
0.08521312
0.08454073
0.08243755
0.07810078
0.07052579
0.06378123
0.06186248
0.0648577
0.0714069
0.07979623
0.08516074
0.08748087
0.08694291
0.08144684
0.06290884
0.01741561
0.1048735
0.1046301
0.1038997
0.1021845
0.09952435
0.09555143
0.0910113
0.0874199
0.08489441
0.08330194
0.0825444
0.08253825
0.08305778
0.08352774
0.08307503
0.081179
0.07816109
0.07378464
0.0666757
0.06057131
0.05946353
0.06319958
0.07036324
0.07928238
0.08498339
0.08756667
0.08726215
0.08197567
0.06349503
0.01750083
0.1048739
0.1046168
0.1038555
0.1020949
0.09937497
0.09528758
0.09062614
0.08701946
0.08454004
0.08300133
0.08226686
0.08220326
0.08248924
0.08239612
0.08093365
0.07777383
0.07383176
0.06943126
0.0628367
0.05744749
0.05719941
0.06165915
0.06938524
0.07877792
0.08479667
0.08759967
0.08747058
0.08232676
0.06388062
0.01755458
0.1048702
0.104598
0.1038084
0.102006
0.09923534
0.09506675
0.09035716
0.08676079
0.08431664
0.08281002
0.08208074
0.0819544
0.08202307
0.08141581
0.07903277
0.07473181
0.06995602
0.06551583
0.05936802
0.05460696
0.05512105
0.06020109
0.06839515
0.07819503
0.08455626
0.08756267
0.08757838
0.08253952
0.06412075
0.01758694
0.1048647
0.1045766
0.1037579
0.1019111
0.09909002
0.09488052
0.09021361
0.08666692
0.08424849
0.08274659
0.08199826
0.08180491
0.08169837
0.08070919
0.07766381
0.07254467
0.06712605
0.06259333
0.05672154
0.0523266
0.05335516
0.05886882
0.06737214
0.07745257
0.08419947
0.08744457
0.08760365
0.0826515
0.06425901
0.01760502
0.1048594
0.1045572
0.1037118
0.1018186
0.09894222
0.09475121
0.0901621
0.08664613
0.08423724
0.08273324
0.08196546
0.08172353
0.08151647
0.0803397
0.07699498
0.07150923
0.06576443
0.06114121
0.05534829
0.05093315
0.05212073
0.05784147
0.06643781
0.07649173
0.08364462
0.08723412
0.08756463
0.08269416
0.06432871
0.01761398
0.1048557
0.1045435
0.1036791
0.1017507
0.0988068
0.09465014
0.09012442
0.08664311
0.08424725
0.08273738
0.08195056
0.08168518
0.08146891
0.08032927
0.07709485
0.07176763
0.06612791
0.06149485
0.05558201
0.05070104
0.05162392
0.05732721
0.06582351
0.07562693
0.08304492
0.08698751
0.08749239
0.08269577
0.06435563
0.01761755
0.1048541
0.1045375
0.1036642
0.1017201
0.0987553
0.09459972
0.09011575
0.08666029
0.08426202
0.0827358
0.08193315
0.08167686
0.08155403
0.0806994
0.07803499
0.07345619
0.06838281
0.0637949
0.05749185
0.05164022
0.05170533
0.05701974
0.06529358
0.07502064
0.08266632
0.08681848
0.0874329
0.08268285
0.06436014
0.01761811
0.1048551
0.1045405
0.1036698
0.1017308
0.09879344
0.09458923
0.09011195
0.08665952
0.08424728
0.08270753
0.08190464
0.0816953
0.08175897
0.08140318
0.07970833
0.07638472
0.07224973
0.06776071
0.0608435
0.05369918
0.05247242
0.05713347
0.06514775
0.07477503
0.08251348
0.08674886
0.08740169
0.08266736
0.06435202
0.0176171
0.1048587
0.1045524
0.1036965
0.1017794
0.09887084
0.09469832
0.0901645
0.08664649
0.08420604
0.08266209
0.08187708
0.0817429
0.08204135
0.08226911
0.08168079
0.07980615
0.07680347
0.07250499
0.06489236
0.05647395
0.05385856
0.057737
0.06544145
0.0749762
0.082606
0.08677394
0.08739765
0.08264912
0.06433091
0.01761445
0.1048641
0.104571
0.1037391
0.1018631
0.09900687
0.09485208
0.09023776
0.08665061
0.08417993
0.08263298
0.08187343
0.08182726
0.0823688
0.08315905
0.08359894
0.08307918
0.08119995
0.07717774
0.06893473
0.05941016
0.05555454
0.0586805
0.06612109
0.07554902
0.08291113
0.08688774
0.08741351
0.08261929
0.06428796
0.01760885
0.1048706
0.1045933
0.1037904
0.1019644
0.09915842
0.09494163
0.09024117
0.08664286
0.08418092
0.08264752
0.08192064
0.08196519
0.08273655
0.08402607
0.08534351
0.08597521
0.08508518
0.0813415
0.07256856
0.06215212
0.05726696
0.05969202
0.06689973
0.07646856
0.08348576
0.08708506
0.08743387
0.08256014
0.06420642
0.01759793
0.1048766
0.1046149
0.1038385
0.102054
0.09930229
0.09515912
0.09044437
0.08681054
0.08431775
0.08276903
0.0820573
0.08217986
0.08315715
0.08487875
0.08692822
0.08850441
0.08842837
0.08490023
0.07569501
0.06464181
0.05900809
0.06085517
0.06785008
0.07740647
0.08403786
0.0872702
0.08741812
0.08244165
0.06406034
0.01757823
0.1048803
0.1046329
0.1038821
0.1021339
0.09942784
0.0953706
0.09072475
0.08710288
0.08458478
0.08300713
0.08229349
0.082478
0.08363771
0.08573667
0.08840337
0.090752
0.09132081
0.08791615
0.07837201
0.06696268
0.06089689
0.06229961
0.06897502
0.07821879
0.0844281
0.08736209
0.08732123
0.08222573
0.06381474
0.01754485
0.1048797
0.1046454
0.1039238
0.1022186
0.0995707
0.09562913
0.09111314
0.08751566
0.08495478
0.08332714
0.08259682
0.08283409
0.08416349
0.08660478
0.08980795
0.09279751
0.09386522
0.09048607
0.08068156
0.06914302
0.06286247
0.06386526
0.07009936
0.07888264
0.08468683
0.08735716
0.08711929
0.08187331
0.06342621
0.0174908
0.1048722
0.1046515
0.1039713
0.1023304
0.09977499
0.09601334
0.09166918
0.08801534
0.08534473
0.08364321
0.08289799
0.08319746
0.08470062
0.08746857
0.09115518
0.0946876
0.09613329
0.09269065
0.08270027
0.07121577
0.06488064
0.06552265
0.07125517
0.0795114
0.08490161
0.08728769
0.08680572
0.08134579
0.06284005
0.017406
0.1048561
0.1046565
0.1040436
0.102505
0.1000923
0.09658524
0.09232092
0.08844167
0.08562907
0.08388413
0.08315717
0.08353768
0.08521916
0.08830207
0.09243319
0.09643245
0.09815613
0.09457784
0.08448487
0.07322333
0.06698777
0.06733801
0.07254545
0.08020971
0.08518569
0.08722861
0.0864114
0.0806216
0.06199462
0.01727569
0.1048351
0.1046852
0.1041913
0.1028102
0.1005941
0.09739973
0.09314796
0.08909899
0.08616173
0.08431243
0.08351701
0.08390105
0.08570571
0.08906673
0.0936041
0.09800862
0.09992693
0.09615804
0.08605323
0.07518478
0.06923779
0.06944057
0.07417171
0.0812079
0.08573968
0.08736244
0.0860704
0.07975015
0.06084789
0.0170775
0.1048314
0.1048186
0.1045476
0.1034068
0.101434
0.0985319
0.09457554
0.09041149
0.08717914
0.08501142
0.08395836
0.08420954
0.08605973
0.08966651
0.0945914
0.09936188
0.1014081
0.09740229
0.08736025
0.07704033
0.07161755
0.07193677
0.07637704
0.08283446
0.08694266
0.08808876
0.08614892
0.07898051
0.05944872
0.01678004
0.1049189
0.1052537
0.1053692
0.1045602
0.1028693
0.1002201
0.09614499
0.09179013
0.08812627
0.08548341
0.08406384
0.0841373
0.08604325
0.08993774
0.09528679
0.1004194
0.1025433
0.09824616
0.088281
0.07859264
0.0739303
0.07476314
0.07934281
0.085507
0.08935939
0.09008324
0.08739706
0.07901292
0.05815915
0.01635693
0.1052805
0.1062961
0.1068534
0.1063141
0.1048409
0.1023449
0.09822716
0.09321347
0.08851801
0.08512676
0.08332112
0.08331969
0.08542386
0.08973978
0.09560117
0.1011165
0.1032776
0.09861321
0.08863551
0.07949675
0.07568132
0.0774185
0.08281876
0.08937585
0.09334116
0.09392738
0.09078552
0.08129571
0.05850979
0.01593846
0.1061586
0.10777
0.1081737
0.1075183
0.106178
0.1039527
0.09998479
0.09372995
0.08743209
0.08336888
0.08148473
0.08170991
0.08423678
0.08910916
0.09553306
0.1014168
0.1035689
0.09846824
0.08831178
0.07943901
0.07622146
0.07890184
0.08572946
0.09363021
0.09804115
0.09890626
0.0963166
0.08739456
0.06360343
0.0166155
0.106807
0.1073914
0.1069668
0.1063658
0.1056608
0.1044825
0.1017052
0.09475281
0.08523975
0.08100388
0.07947274
0.08012402
0.08308321
0.08838352
0.09517263
0.1012515
0.1033272
0.09784986
0.08749002
0.0786381
0.07553106
0.07864364
0.08717502
0.09847182
0.1024882
0.103362
0.102499
0.09804563
0.07986503
0.02195959
0.1066021
0.1068763
0.1061996
0.105348
0.1043596
0.102732
0.09888287
0.09067666
0.08540279
0.08232425
0.0809989
0.08133369
0.0834603
0.08732458
0.09219025
0.09639892
0.09752896
0.09277071
0.0838857
0.07643667
0.0738743
0.07639453
0.08334323
0.0957079
0.1001354
0.1011118
0.1002961
0.09618498
0.07960387
0.0221998
0.1052789
0.106291
0.1068429
0.1062952
0.1048091
0.1022963
0.09815675
0.09314236
0.08846748
0.08507469
0.08321357
0.08301586
0.08463049
0.08798018
0.09235037
0.09617865
0.09719612
0.09272999
0.08420369
0.0770261
0.07467015
0.07714929
0.08283325
0.08945201
0.09344687
0.0940269
0.09087028
0.08136763
0.05856212
0.01594294
0.1039402
0.103901
0.104917
0.1052901
0.1044961
0.1024431
0.09896453
0.09476033
0.09066743
0.08739233
0.08532901
0.08473903
0.08581033
0.08847236
0.09207437
0.095233
0.09595541
0.09180052
0.08374016
0.07684593
0.07446967
0.07649306
0.081042
0.08582077
0.08845471
0.08792062
0.08308853
0.0714719
0.04864386
0.01321608
0.1033528
0.1022519
0.1026288
0.1029151
0.1023425
0.1006576
0.09781074
0.0943692
0.09098028
0.08816165
0.08628172
0.08562462
0.08638184
0.08847827
0.09132049
0.09372162
0.09402574
0.09007287
0.08234221
0.0755088
0.07284047
0.07421278
0.07779024
0.08149707
0.08338672
0.08243248
0.07742685
0.06619674
0.04506942
0.01273657
0.1031692
0.101534
0.1012908
0.10111
0.1002924
0.09856121
0.09595905
0.09296081
0.09009817
0.08774766
0.08619061
0.08565691
0.08628511
0.08795127
0.09007963
0.0916679
0.09143973
0.08757167
0.08005607
0.07317068
0.0701975
0.07110355
0.07418069
0.07754359
0.07937348
0.07873071
0.07447909
0.0645437
0.04499274
0.01305092
0.1031334
0.1012924
0.1006981
0.1001406
0.09900994
0.09704919
0.09439234
0.09153952
0.08895316
0.08691207
0.08561268
0.08520809
0.08574943
0.08701881
0.08840895
0.0890856
0.08820034
0.08433806
0.07703071
0.07016954
0.06713278
0.06799223
0.07113296
0.07475668
0.07698927
0.07700163
0.07370691
0.06496652
0.04630115
0.01343254
0.1031377
0.1012272
0.1004612
0.09967405
0.09830704
0.09611281
0.09333947
0.09051236
0.08803932
0.08614745
0.084979
0.08462
0.08502151
0.08583575
0.08637992
0.08598791
0.0843115
0.08042393
0.07341723
0.0667877
0.06403264
0.06525458
0.06885094
0.07304162
0.07583716
0.0765224
0.07402733
0.06611039
0.04780263
0.01371914
0.1031459
0.1012101
0.1003577
0.0994375
0.09791444
0.09553694
0.09265669
0.08982383
0.08739181
0.08556007
0.08443767
0.08405231
0.08424589
0.08450861
0.08404604
0.08239134
0.07980185
0.07590807
0.06935155
0.06320556
0.06105474
0.06291892
0.06715252
0.07198263
0.07533116
0.07657544
0.07465993
0.06725843
0.04904888
0.01391267
0.1031493
0.1011983
0.1002957
0.0992955
0.09767325
0.09516514
0.09217042
0.08929957
0.08688295
0.0850874
0.08398613
0.08354615
0.0834878
0.08310707
0.08146708
0.07836608
0.07479178
0.07095774
0.06500246
0.05955568
0.0582357
0.06087725
0.06578176
0.07120892
0.07506993
0.0767481
0.07523843
0.06815944
0.0499559
0.01403827
0.1031475
0.1011814
0.1002423
0.09918758
0.09749504
0.09490024
0.09182438
0.08891452
0.0864998
0.0847257
0.08363293
0.08312667
0.08279629
0.08171843
0.07879057
0.07415662
0.06961976
0.0659228
0.06064511
0.05599701
0.05559468
0.05902896
0.06456751
0.07053263
0.07484865
0.07686464
0.07564615
0.06878052
0.05056674
0.01411693
0.1031423
0.1011592
0.100188
0.09908842
0.09733812
0.09468849
0.09157283
0.08864795
0.08623923
0.08447916
0.08338547
0.0828106
0.08222303
0.08049105
0.07635636
0.070332
0.06495797
0.06138745
0.05670368
0.05275991
0.05318597
0.05732256
0.06341042
0.0698438
0.07457691
0.07687176
0.07587652
0.06916481
0.05095089
0.01416371
0.1031357
0.1011351
0.1001334
0.09899284
0.09719466
0.09452091
0.09140509
0.08848818
0.08608875
0.08433432
0.08323058
0.08259472
0.08181087
0.07960603
0.07462464
0.06763374
0.06159971
0.05801479
0.05369473
0.05014688
0.05112935
0.05578881
0.06229996
0.06910916
0.07421855
0.07676593
0.07596037
0.06937136
0.05117243
0.01418925
0.1031297
0.1011138
0.1000859
0.09890892
0.09706799
0.09438577
0.09128228
0.0883795
0.08599228
0.08424263
0.08312883
0.08245323
0.08156744
0.07914697
0.07380464
0.06639745
0.06001284
0.05632737
0.05211197
0.04850036
0.0496166
0.05455453
0.06132757
0.06837439
0.07377856
0.07656815
0.07593907
0.0694559
0.05128372
0.01420128
0.1031255
0.1010989
0.1000529
0.09885033
0.09697616
0.09428625
0.09119835
0.08831248
0.08593425
0.08418261
0.08305681
0.08236724
0.08148835
0.07913379
0.07394113
0.06672594
0.06044945
0.05669106
0.05233196
0.04814235
0.04885967
0.05378322
0.06064838
0.06777756
0.07334773
0.07633916
0.07586365
0.06946847
0.05132676
0.01420546
0.1031237
0.1010927
0.1000386
0.09882416
0.09693598
0.09424555
0.09116805
0.08828818
0.08590639
0.08414304
0.08300544
0.08233392
0.08158479
0.07961698
0.07517669
0.06886088
0.06316354
0.05930557
0.05448172
0.04922322
0.04892295
0.05343062
0.06018998
0.06733065
0.07303562
0.07616551
0.07579072
0.06945214
0.05133426
0.01420566
0.1031248
0.1010962
0.1000454
0.09883507
0.09695397
0.09426419
0.0911835
0.08829436
0.08589879
0.08412026
0.08297789
0.08235865
0.08184962
0.08055788
0.07744332
0.07269322
0.06794226
0.06394264
0.0583163
0.05167314
0.04990009
0.05364042
0.06012075
0.06718557
0.07291677
0.07608922
0.07574775
0.06942866
0.05132297
0.01420422
0.1031287
0.1011093
0.1000733
0.09888246
0.09702328
0.09433879
0.09124057
0.08832895
0.08591467
0.08412284
0.08298521
0.08244024
0.08221607
0.08168624
0.08004395
0.07710163
0.0735451
0.06953306
0.06300433
0.05499789
0.05165833
0.05443231
0.06049191
0.06737505
0.07300092
0.07611269
0.07573584
0.06939813
0.05129209
0.01420097
0.1031348
0.1011297
0.1001172
0.09895862
0.09713734
0.09446286
0.09134318
0.08840472
0.08596882
0.08416508
0.08303901
0.08257678
0.08262847
0.08278601
0.08242634
0.08110936
0.07877171
0.07495097
0.06765297
0.05848974
0.05379463
0.0556173
0.06120976
0.06785352
0.07326475
0.07621986
0.07573889
0.06934324
0.05122634
0.01419376
0.1031422
0.1011546
0.1001708
0.09905123
0.09727406
0.09459901
0.09146451
0.08851559
0.08607033
0.08426265
0.08315438
0.08277531
0.08307344
0.08380305
0.08447209
0.08448186
0.08322922
0.07968587
0.07180063
0.06174598
0.05599393
0.05697453
0.06209892
0.06849376
0.07365635
0.0763741
0.07572331
0.06923043
0.05109745
0.01417887
0.1031493
0.1011798
0.1002256
0.09914524
0.09741745
0.09478088
0.09166107
0.08871146
0.08625773
0.08444467
0.08335262
0.08305023
0.08356294
0.08476334
0.08624849
0.08731133
0.08695602
0.08366949
0.07533854
0.06466039
0.05817153
0.0584633
0.06312552
0.06921671
0.07406486
0.07649917
0.07563254
0.06900875
0.05086366
0.01415096
0.1031547
0.1012018
0.1002781
0.09923955
0.09756649
0.09498948
0.09192081
0.08899754
0.08654642
0.08472809
0.08364739
0.08341175
0.08411134
0.08570705
0.08785394
0.08975665
0.09011568
0.08700964
0.07833344
0.0672879
0.0603724
0.06013578
0.06431925
0.06998683
0.07440949
0.0765225
0.07540439
0.06861596
0.05047079
0.01410265
0.1031563
0.1012181
0.1003298
0.09934433
0.09773647
0.09524969
0.09226878
0.0893913
0.08694502
0.08511493
0.08403659
0.08385657
0.08472116
0.08665943
0.0893611
0.09194618
0.0928619
0.08984169
0.08089443
0.06969934
0.06259993
0.06194523
0.06561188
0.0707556
0.07468332
0.07642803
0.07500041
0.06799094
0.04985494
0.01402344
0.1031525
0.1012288
0.1003904
0.09948556
0.09797831
0.09562514
0.09275993
0.08991891
0.08745677
0.08559659
0.08450656
0.08436927
0.08538024
0.08762304
0.09080434
0.0939551
0.09529692
0.09227102
0.08312068
0.07196697
0.06488611
0.0639183
0.06705835
0.07161286
0.07498231
0.07627323
0.0744283
0.06709094
0.04894715
0.01389833
0.1031436
0.1012443
0.1004923
0.0997218
0.09837244
0.09620556
0.0934476
0.09060267
0.08809362
0.08617853
0.08505233
0.08493264
0.08606356
0.0885765
0.09218062
0.09580756
0.0974672
0.09435646
0.08507599
0.07414423
0.06728476
0.06615202
0.06881742
0.07275998
0.07552325
0.07623992
0.07380612
0.06594855
0.04770412
0.01370615
0.1031384
0.1013075
0.1007268
0.1001867
0.0990759
0.09714569
0.09449105
0.09161884
0.08900349
0.08694782
0.08569703
0.08552113
0.08671949
0.08946475
0.09344896
0.09748439
0.09937163
0.09610844
0.0867678
0.07622585
0.06981587
0.06876065
0.07113306
0.0745478
0.07671045
0.07674156
0.0734991
0.06481316
0.04620836
0.01342145
0.1031732
0.1015468
0.1013161
0.1011521
0.1003548
0.0986542
0.09606879
0.09306106
0.09017474
0.08781016
0.08629885
0.08597863
0.08720342
0.09017113
0.09452649
0.09893215
0.1009742
0.09749249
0.08812832
0.07809406
0.07236242
0.07173044
0.07418678
0.07737848
0.07912792
0.07849545
0.07428709
0.06440021
0.04490608
0.01304187
0.103356
0.1022626
0.1026507
0.1029521
0.1023984
0.1007398
0.09789889
0.09446088
0.09106123
0.08823572
0.08640337
0.08595008
0.08725896
0.09052328
0.09530331
0.1000803
0.1022212
0.09844115
0.08901379
0.07948551
0.07456475
0.07470747
0.07778876
0.08135838
0.08317801
0.08222972
0.07725802
0.06606799
0.04499108
0.01272936
0.1039427
0.1039095
0.1049344
0.1053199
0.1045421
0.1025124
0.09905347
0.0948535
0.09074785
0.08746833
0.08545468
0.08506338
0.0866549
0.09038319
0.09569386
0.100869
0.1030634
0.09888597
0.08925823
0.08005474
0.07584142
0.07688512
0.08104007
0.08571204
0.08829618
0.08776633
0.08295848
0.07136984
0.04857951
0.0132108
0.1052806
0.1062964
0.1068539
0.1063151
0.1048421
0.1023423
0.09821836
0.09322298
0.08852996
0.08513994
0.083336
0.08333871
0.08545446
0.08979507
0.09569598
0.1012584
0.1034574
0.09880495
0.08881239
0.07963467
0.0757722
0.07747144
0.08284712
0.08939145
0.0933501
0.09393548
0.09079451
0.08130633
0.05852009
0.01594008
0.1066025
0.1068777
0.1062026
0.1053544
0.104371
0.1027294
0.09874769
0.09078241
0.08543901
0.08238384
0.08112434
0.0816612
0.08427576
0.08908051
0.09536213
0.1011278
0.1032568
0.09820102
0.08790175
0.0786472
0.07479487
0.07666747
0.08336778
0.09569109
0.1001068
0.1010864
0.1002757
0.09616784
0.07958901
0.02219922
0.1065501
0.1066049
0.1057288
0.1046953
0.1034976
0.1014872
0.09680806
0.08819126
0.08439092
0.08239193
0.08162172
0.08213676
0.08413733
0.08761322
0.09193945
0.09566932
0.09662339