/*--------------------------------*- C++ -*----------------------------------*\
| =========                 |                                                 |
| \\      /  F ield         | OpenFOAM: The Open Source CFD Toolbox           |
|  \\    /   O peration     | Version:  2506                                  |
|   \\  /    A nd           | Website:  www.openfoam.com                      |
|    \\/     M anipulation  |                                                 |
\*---------------------------------------------------------------------------*/
FoamFile
{
    version     2.0;
    format      ascii;
    arch        "LSB;label=32;scalar=64";
    class       volScalarField;
    location    "300/airRegion";
    object      k;
}
// * * * * * * * * * * * * * * * * * * * * * * * * * * * * * * * * * * * * * //

dimensions      [0 2 -2 0 0 0 0];

internalField   nonuniform List<scalar> 
85779
(
0.09241285
0.08934205
0.08844401
0.08808005
0.08785082
0.08749465
0.08623377
0.08081733
0.05845348
0.03874357
0.03046793
0.02583884
0.02310728
0.02166343
0.02111409
0.02106213
0.02122294
0.02159665
0.02261045
0.02524486
0.03101716
0.04280953
0.06844203
0.08430762
0.08711561
0.08779082
0.08800459
0.08781668
0.08604053
0.07249439
0.09016889
0.08487458
0.08289514
0.08194941
0.08128193
0.08029749
0.07731684
0.06348433
0.04680887
0.03604501
0.02955917
0.02546003
0.02293389
0.02158153
0.0210752
0.02103578
0.02116163
0.02139988
0.02217081
0.02440283
0.02925304
0.03813394
0.05310086
0.07501764
0.07956091
0.08087854
0.08130127
0.08097924
0.07858549
0.06396725
0.09012448
0.08421724
0.08174526
0.08044867
0.07945949
0.07792092
0.07325148
0.05372744
0.04168249
0.03383456
0.02857167
0.02501564
0.02272642
0.02144385
0.02090573
0.02077747
0.02078341
0.02087049
0.02144919
0.02336616
0.02759592
0.03524209
0.04836215
0.07223328
0.07727172
0.07888285
0.07954171
0.07953179
0.07790239
0.06537094
0.09038833
0.08437561
0.08171358
0.08022716
0.0789779
0.07671053
0.06858188
0.04960163
0.03910477
0.03238657
0.02779444
0.02461538
0.02251177
0.02127739
0.02068665
0.02044161
0.02029769
0.02021473
0.02061163
0.02230712
0.02623381
0.03350547
0.04647723
0.07137363
0.07667147
0.07849486
0.07938374
0.07968156
0.07855305
0.06653356
0.09061835
0.08462698
0.08189621
0.08030377
0.07885707
0.07588355
0.06237715
0.04708695
0.03756081
0.03141499
0.02720264
0.02426425
0.02228603
0.0210739
0.02041616
0.02003979
0.01972908
0.01946392
0.0196906
0.02124285
0.02505951
0.03229266
0.04545983
0.07105723
0.07658801
0.0786032
0.07968306
0.0801868
0.07929048
0.06735377
0.09077337
0.0848194
0.08206104
0.0804013
0.07880575
0.07540022
0.06048014
0.04553712
0.03647001
0.03068214
0.02672122
0.02394502
0.0220472
0.0208335
0.02009524
0.01957568
0.01908543
0.01863077
0.01870124
0.02017003
0.02398354
0.03130135
0.0447162
0.0708622
0.07662384
0.07881559
0.08004575
0.08067415
0.07984969
0.06793498
0.09086805
0.08494173
0.08216765
0.08045397
0.07869722
0.07466775
0.05659026
0.04358926
0.0354046
0.03003278
0.02629851
0.0236479
0.02180089
0.02056604
0.01973408
0.01905941
0.01837793
0.01772901
0.01765915
0.01909108
0.02296069
0.03040367
0.04405142
0.07065945
0.07664744
0.07900084
0.08035091
0.08105885
0.08025329
0.06833147
0.09092179
0.08501074
0.08222338
0.08046305
0.07855382
0.07394026
0.05342244
0.04178021
0.03445256
0.029474
0.02593181
0.02337586
0.02155693
0.02028572
0.01934871
0.01850736
0.01762343
0.01677684
0.01658467
0.01801798
0.02197687
0.02955209
0.04340306
0.07041441
0.07662153
0.07912353
0.08057292
0.08133682
0.08053369
0.06859843
0.09094969
0.08504416
0.08224334
0.08044621
0.07844621
0.07356995
0.05237974
0.04094396
0.03387798
0.02907234
0.02563575
0.02313585
0.02132594
0.02000832
0.01895904
0.01794241
0.01684709
0.01580161
0.01550678
0.01697176
0.02103598
0.02873514
0.04275623
0.07012192
0.07654304
0.07918313
0.08071796
0.08152551
0.08072178
0.06877473
0.0909628
0.08505709
0.08224287
0.08041378
0.07834507
0.07331348
0.05192517
0.04049945
0.03350953
0.02877864
0.02539878
0.02293066
0.02111859
0.01975087
0.01858883
0.01739607
0.01608807
0.01484801
0.01446864
0.01598227
0.02015093
0.02795545
0.04211206
0.06975746
0.07641801
0.07919073
0.08080138
0.08164569
0.08084273
0.06888733
0.09096869
0.08506058
0.08223352
0.08037184
0.07822641
0.07303056
0.05153822
0.04014454
0.03321826
0.02854511
0.0252076
0.02276167
0.02094389
0.0195294
0.01826494
0.01691134
0.01540672
0.01398704
0.01353274
0.01508791
0.01933567
0.02720721
0.0414435
0.06926258
0.07624592
0.07915855
0.08083947
0.08171615
0.08091623
0.06895577
0.09097199
0.08506181
0.08222311
0.08032127
0.07804402
0.07248617
0.05099756
0.03976374
0.03295246
0.02835093
0.02505565
0.02262919
0.02080688
0.01935628
0.01801445
0.01653955
0.01488162
0.01331303
0.0127784
0.0143346
0.01859975
0.02644472
0.04057329
0.06828538
0.07596116
0.07908802
0.08084537
0.08175231
0.08095742
0.06899442
0.09097401
0.08506226
0.08221263
0.08025338
0.07769992
0.07082624
0.05013803
0.03935297
0.03271855
0.02819641
0.02494059
0.0225312
0.02070811
0.01923838
0.01785758
0.01632379
0.01458561
0.01291985
0.01228853
0.01377484
0.01795278
0.0255527
0.03880362
0.06349208
0.07520366
0.07895075
0.08082709
0.08176606
0.08097774
0.06901391
0.09097543
0.08506267
0.08220507
0.08020319
0.07727168
0.06541644
0.04917885
0.03902781
0.03255071
0.02809032
0.02486326
0.0224663
0.02064681
0.01917839
0.01780444
0.01628771
0.01456321
0.01287241
0.01212986
0.01346601
0.01745461
0.02465604
0.03681254
0.05713205
0.0743937
0.07879746
0.08079843
0.08176727
0.08098568
0.06902198
0.0909764
0.08506359
0.08220272
0.08018439
0.07719179
0.06513595
0.04893952
0.03888705
0.03247071
0.02803968
0.02482547
0.02243461
0.02062299
0.01917653
0.01785522
0.01643164
0.01481699
0.01318123
0.01232516
0.01344877
0.01721994
0.02418434
0.0361828
0.05959311
0.07425675
0.07872475
0.080778
0.08176367
0.08098668
0.06902353
0.09097673
0.0850647
0.08220629
0.08019901
0.07744105
0.06986954
0.04941393
0.03895797
0.0324949
0.0280514
0.02483023
0.02243809
0.02063772
0.01922973
0.01799486
0.01671613
0.01527548
0.01376369
0.01283139
0.01372532
0.01726855
0.0240564
0.03572207
0.05579668
0.07402653
0.07869066
0.0807674
0.08175874
0.08098381
0.06902146
0.09097619
0.08506504
0.08221212
0.08021778
0.07742418
0.06877016
0.04949951
0.03913225
0.03261192
0.02812348
0.02487749
0.02247746
0.02069009
0.01932961
0.01819587
0.01707846
0.01582806
0.01446665
0.01351483
0.01422878
0.01757959
0.02428426
0.03613689
0.05949679
0.07422275
0.07870828
0.08076591
0.08175237
0.08097705
0.06901567
0.09097523
0.08506552
0.08222124
0.08026631
0.07762445
0.06948018
0.05007455
0.0394688
0.03280876
0.02824686
0.024964
0.02255192
0.02077858
0.01946922
0.01843808
0.01747589
0.01640395
0.01519071
0.0142673
0.01487274
0.0181034
0.02480815
0.03667881
0.05712441
0.07432889
0.07875818
0.08077048
0.08174157
0.0809636
0.06900346
0.09097392
0.08506633
0.08223398
0.08035033
0.07810875
0.07254436
0.05122061
0.0399443
0.03306422
0.02841181
0.02508687
0.02266103
0.02090209
0.0196443
0.01871164
0.01789119
0.01697743
0.01589803
0.01503452
0.0156017
0.01881122
0.02576253
0.03889093
0.06606098
0.07530066
0.07889757
0.08077935
0.08172064
0.08093809
0.06897986
0.09097205
0.0850677
0.0822469
0.08039999
0.078289
0.07315911
0.05171443
0.04028791
0.03331549
0.02860437
0.02524397
0.02280478
0.02105976
0.01985221
0.01901257
0.01832084
0.01754712
0.0165878
0.01580472
0.0163863
0.01962287
0.02679525
0.04055968
0.06831646
0.07587942
0.0790138
0.08077372
0.08167979
0.08089263
0.06893772
0.09096711
0.08506581
0.08225749
0.08043956
0.07839478
0.0734138
0.05204722
0.04060946
0.03359325
0.02883559
0.02543932
0.02298337
0.02124924
0.02008916
0.01933748
0.01876462
0.01811852
0.01727128
0.01658413
0.01721431
0.02047536
0.02771203
0.04158309
0.06913117
0.07615602
0.07906636
0.08073558
0.08160638
0.08081638
0.06886711
0.09095422
0.08505319
0.08225797
0.08047049
0.07848986
0.07365681
0.05248398
0.04105409
0.03396824
0.02913576
0.02568262
0.02319638
0.02146527
0.02034801
0.01967984
0.01921931
0.01869406
0.01795699
0.01737866
0.0180801
0.02135994
0.02857413
0.04236364
0.06963648
0.07631857
0.07906712
0.08065264
0.08148518
0.08069445
0.06875399
0.09092582
0.08501878
0.0822365
0.08048559
0.07859486
0.07401194
0.05344592
0.04189877
0.03456938
0.02955537
0.02598855
0.02344282
0.0217
0.02061817
0.02002895
0.01967653
0.01926976
0.01864635
0.01818976
0.01898091
0.02228181
0.02944038
0.0430874
0.07006348
0.07642719
0.07901663
0.08051069
0.08129768
0.08050716
0.06857879
0.09087107
0.08494783
0.08217802
0.0804738
0.07873056
0.07467685
0.05613535
0.04362528
0.03554553
0.03013599
0.0263658
0.0237195
0.02194431
0.02088716
0.02037106
0.02012342
0.01983545
0.01933332
0.01901285
0.01991254
0.02324429
0.03033613
0.04380244
0.07038565
0.07648176
0.07890641
0.08029468
0.08102293
0.08022908
0.06831432
0.09077532
0.08482343
0.08206832
0.08041816
0.0788538
0.07570198
0.06480362
0.04619725
0.03671255
0.03080576
0.02679361
0.02401805
0.02218885
0.02114224
0.02069136
0.02054485
0.02037692
0.02000592
0.0198375
0.02086841
0.02425126
0.03128002
0.04453588
0.07064751
0.07648884
0.07873686
0.07999786
0.08064297
0.07982877
0.06792126
0.09061942
0.0846294
0.08190084
0.0803146
0.07889004
0.0760254
0.06309679
0.04741845
0.03773718
0.03151456
0.02726504
0.02433288
0.02242351
0.02137018
0.02097534
0.02092593
0.02087877
0.02064864
0.02064919
0.02184244
0.02531852
0.03231734
0.04534695
0.07090055
0.07648564
0.0785422
0.07964499
0.08016128
0.07927284
0.06734426
0.09038867
0.08437667
0.08171595
0.08023379
0.07901661
0.07700931
0.07100035
0.05018577
0.03926896
0.0324582
0.027839
0.02467398
0.02264198
0.02156083
0.02121245
0.02125522
0.02132711
0.0212446
0.02143113
0.02283273
0.02649039
0.03357198
0.04642542
0.07127148
0.07660114
0.07845197
0.07935599
0.07966211
0.07853937
0.06652769
0.09012435
0.08421738
0.0817461
0.08045152
0.07947094
0.07798273
0.07355306
0.05386366
0.04170605
0.03385043
0.02858901
0.02505921
0.02284685
0.02171444
0.02140145
0.02152746
0.02171062
0.02177585
0.0221635
0.02384043
0.02785525
0.03534303
0.0483583
0.07217694
0.07722998
0.07885666
0.07952376
0.07951827
0.0778927
0.06536794
0.09016862
0.08487431
0.08289512
0.08195036
0.08128621
0.08031289
0.07735739
0.06346779
0.04629271
0.03590762
0.02952894
0.02548368
0.02304361
0.02184062
0.02154494
0.02173117
0.0220035
0.02220715
0.02280832
0.02484511
0.02952126
0.03826269
0.05312139
0.07499549
0.07954231
0.08086633
0.0812919
0.08097121
0.07857933
0.06396608
0.09241266
0.08934174
0.08844359
0.08807971
0.08785144
0.08749788
0.08622871
0.08057011
0.05146476
0.0378082
0.03032094
0.02583859
0.02320768
0.02191179
0.02156195
0.02171802
0.02200847
0.02234117
0.02319968
0.02567128
0.03130177
0.04296665
0.06844443
0.08430813
0.08711592
0.08779016
0.0880028
0.08781423
0.08603839
0.07249429
0.09016888
0.08487458
0.08289518
0.08194948
0.08128206
0.08030038
0.07733378
0.06348794
0.04681014
0.03604712
0.02956157
0.02546308
0.02293911
0.02159139
0.02109307
0.02106516
0.02120343
0.02144973
0.02221932
0.02444136
0.02927769
0.03814532
0.05310198
0.07501253
0.0795609
0.08088089
0.0813045
0.08098263
0.07858871
0.06396918
0.0859428
0.07603683
0.07141978
0.06888757
0.06701601
0.06479364
0.0607927
0.05235784
0.04209859
0.03425842
0.02881166
0.02512111
0.02277608
0.02151136
0.02104948
0.02102683
0.02112604
0.02123811
0.02176472
0.02361034
0.02773213
0.03487277
0.04536116
0.05750467
0.06301831
0.0652682
0.06578052
0.06433583
0.05832263
0.03662827
0.08531041
0.07381643
0.06783979
0.06429723
0.06160946
0.05863538
0.05410569
0.04616856
0.0385634
0.03248892
0.02795341
0.02471739
0.02258043
0.02137377
0.02087229
0.02075382
0.02072936
0.02069014
0.0210192
0.02254483
0.0260647
0.03206431
0.0406482
0.05075983
0.05619268
0.05871624
0.05940707
0.0580472
0.05246422
0.03370903
0.08545206
0.07354954
0.06697848
0.06286481
0.05961765
0.05600382
0.05068488
0.04309226
0.0364571
0.03121862
0.02724278
0.02434204
0.02237392
0.02120689
0.02064558
0.02040341
0.02022538
0.02001564
0.02015312
0.02143024
0.02458664
0.03007203
0.03809118
0.04797057
0.05356905
0.05641643
0.05754264
0.05685053
0.05249165
0.03550754
0.08568238
0.07374602
0.06694492
0.06252555
0.05890107
0.05478319
0.04868613
0.04134683
0.03515156
0.03033323
0.02668376
0.0240035
0.02215196
0.02100088
0.0203651
0.01998346
0.01963382
0.01924071
0.01919702
0.02030019
0.02328234
0.02861281
0.03660434
0.04675936
0.05273043
0.05597999
0.05757871
0.05749724
0.05396438
0.03737453
0.0858583
0.07397189
0.06708454
0.06249507
0.05861112
0.05412346
0.04752494
0.04021026
0.03424109
0.0296703
0.02622699
0.02369166
0.02191321
0.02075453
0.02002968
0.01949484
0.01895903
0.01837427
0.01816476
0.01916014
0.02209445
0.02744723
0.03560143
0.04615325
0.05255792
0.05620348
0.0581925
0.05851892
0.05540099
0.03871811
0.08596925
0.07413002
0.06720286
0.06250094
0.05840591
0.0535638
0.04627815
0.0391691
0.03347183
0.02911914
0.02583458
0.0234014
0.02166467
0.0204777
0.01964877
0.01894618
0.01821007
0.01742785
0.01707181
0.01801655
0.0209836
0.02643627
0.03479762
0.04572657
0.0525504
0.05654931
0.05883889
0.05942317
0.05650429
0.03962788
0.08603141
0.07421925
0.06726412
0.06247689
0.058207
0.05306123
0.04517229
0.03826371
0.03282718
0.02866032
0.02549798
0.02313569
0.02141743
0.02018567
0.01923869
0.01835301
0.01740198
0.01641792
0.01593865
0.01688264
0.01993252
0.02551107
0.03406446
0.04529744
0.05251067
0.05681986
0.05934486
0.06010035
0.05728312
0.04023205
0.08606185
0.0742591
0.06727864
0.06242678
0.05803952
0.0527299
0.04461021
0.03771867
0.0323798
0.02830853
0.02521923
0.02289953
0.02118291
0.01989549
0.01882007
0.01773777
0.01655848
0.01537073
0.01479485
0.01577937
0.01893958
0.02464364
0.03335287
0.04479334
0.05238185
0.05696746
0.05968494
0.06056419
0.05780624
0.04062616
0.08607362
0.07426873
0.06726271
0.06235542
0.05787376
0.05246767
0.04425737
0.03735537
0.03205523
0.02803519
0.02499043
0.02269624
0.02097221
0.01962506
0.01841795
0.0171333
0.01572012
0.01433343
0.01368654
0.01473663
0.01801256
0.02382731
0.03266054
0.04426576
0.05217292
0.05700283
0.05988313
0.06085918
0.05814215
0.04087546
0.08607566
0.07426245
0.06722943
0.06226558
0.0576835
0.0521854
0.04393487
0.03704885
0.03178982
0.02781348
0.02480381
0.02252798
0.02079416
0.01939116
0.01806251
0.01658983
0.01495748
0.01338822
0.01268374
0.01379472
0.01716412
0.02305803
0.03198047
0.04374557
0.05190133
0.05695155
0.05997453
0.06103077
0.05834606
0.04102563
0.08607363
0.07424993
0.06718879
0.06216032
0.05744966
0.0517938
0.04356135
0.03674913
0.03155788
0.02763194
0.02465555
0.02239522
0.02065348
0.0192074
0.01778725
0.01617309
0.01436939
0.01264884
0.01187686
0.01300388
0.01641068
0.02231969
0.03124143
0.04306181
0.05153638
0.05683018
0.05999069
0.06111717
0.05846
0.04110936
0.08607063
0.07423738
0.06715099
0.06205626
0.05718311
0.05121486
0.04314431
0.03647495
0.03136785
0.02749157
0.02454385
0.02229607
0.02055081
0.01908223
0.0176176
0.01593716
0.01404588
0.01222655
0.01135936
0.01242274
0.01577856
0.02158806
0.03027454
0.04169761
0.05095499
0.05663733
0.05995623
0.06114855
0.05851556
0.04115062
0.08606839
0.07422855
0.06712527
0.06198791
0.05700157
0.05065313
0.04282713
0.03627885
0.03123659
0.0273969
0.02446871
0.02222925
0.02048592
0.01901952
0.01756611
0.01591033
0.01403987
0.01219733
0.011208
0.01211473
0.01532354
0.02093359
0.02924975
0.04020775
0.05031362
0.05641827
0.05989837
0.06114929
0.05853623
0.04116676
0.08606766
0.0742251
0.06711375
0.06195445
0.05691879
0.05049669
0.04269068
0.03618636
0.03117546
0.02735252
0.02443154
0.02219533
0.02045963
0.01902035
0.0176341
0.01609487
0.01435678
0.01257613
0.01145287
0.01212486
0.01512233
0.02055904
0.02870142
0.03968427
0.04997116
0.05627986
0.05985208
0.06113865
0.05853833
0.04116915
0.08606871
0.07422781
0.06711902
0.0619629
0.05694465
0.05074266
0.04275661
0.0362174
0.03119482
0.02736298
0.02443503
0.02219703
0.02047402
0.01908143
0.01780235
0.01644009
0.01490654
0.01326445
0.01204518
0.01245483
0.01520289
0.0204825
0.0285144
0.03934198
0.04984533
0.05622534
0.05982758
0.06112603
0.05853054
0.04116452
0.08607147
0.07423661
0.06714199
0.06201843
0.05704627
0.05082203
0.04292614
0.03635841
0.0312913
0.02742694
0.02447947
0.02223565
0.02052847
0.01919211
0.01803419
0.01686244
0.01554499
0.01406831
0.01282284
0.01302664
0.01554447
0.02069333
0.02869049
0.03961062
0.04991351
0.05624374
0.0598234
0.06111134
0.05851271
0.04115253
0.08607556
0.07425013
0.06717803
0.06211066
0.05726167
0.05121554
0.0432643
0.03659429
0.03145067
0.02753776
0.02456277
0.0223107
0.02062103
0.01934344
0.01830344
0.01730747
0.01618558
0.01486773
0.01365266
0.01373092
0.01608451
0.02116085
0.02918442
0.04002917
0.05017308
0.05633307
0.05983277
0.06108696
0.05847697
0.04112702
0.08608014
0.07426631
0.06722268
0.06223108
0.05758665
0.05198397
0.04375759
0.03690044
0.03165759
0.02768866
0.02468276
0.02242136
0.02074969
0.01953
0.01859953
0.01775887
0.0168054
0.0156268
0.01447576
0.01450296
0.01677472
0.02188391
0.03018548
0.04163259
0.05076223
0.05649899
0.05984297
0.06103789
0.05840826
0.04107673
0.08608341
0.07428096
0.06726406
0.06232951
0.05779856
0.05233893
0.04409269
0.03717955
0.03188367
0.02787235
0.02483807
0.02256702
0.02091269
0.01974854
0.01891933
0.01821661
0.01740935
0.01635226
0.01528436
0.01531663
0.01756441
0.02273061
0.0312479
0.04288211
0.05134158
0.0566607
0.05982155
0.06094009
0.0582841
0.04098546
0.08608204
0.07428812
0.06729649
0.0624119
0.05796669
0.05258244
0.0443791
0.03746553
0.03214143
0.02809433
0.02503062
0.02274689
0.02110711
0.01999521
0.01926058
0.01868361
0.01800795
0.01706171
0.0160903
0.01616657
0.01841551
0.02358422
0.03211336
0.04363784
0.05171858
0.05673716
0.05972861
0.06076173
0.05807354
0.04083059
0.08607021
0.07427811
0.06731091
0.06247863
0.05811891
0.05283125
0.04472344
0.0378288
0.03246983
0.02837266
0.02526604
0.02295954
0.0213276
0.02026321
0.01961777
0.01915874
0.01860685
0.0177681
0.0169049
0.01705262
0.01931667
0.02444793
0.03288068
0.0441892
0.05196215
0.05671401
0.05953144
0.06046453
0.05773502
0.04057994
0.08603901
0.07423662
0.06729393
0.06252591
0.05828461
0.05316527
0.04528754
0.03839248
0.03293598
0.02873701
0.02555329
0.02320298
0.02156646
0.02054226
0.01998075
0.01963471
0.01920372
0.01847534
0.0177334
0.01797598
0.02027005
0.02534874
0.03363792
0.04467878
0.05211556
0.05658095
0.0591978
0.06000348
0.05721349
0.04018792
0.08597556
0.07414472
0.06722907
0.06254673
0.05848269
0.05366844
0.04634517
0.03931266
0.03360591
0.02921211
0.02589876
0.02347399
0.02181444
0.02081954
0.02033555
0.02009865
0.01978864
0.01917822
0.01857325
0.01893552
0.02128112
0.02631055
0.03443648
0.04519579
0.05220059
0.0563342
0.05870452
0.05933369
0.05643992
0.03958874
0.08586304
0.07398334
0.06710598
0.06253526
0.05868734
0.05427257
0.04791362
0.04045332
0.03440361
0.02977281
0.02629546
0.02376662
0.02206148
0.0210811
0.02066629
0.02053463
0.02034667
0.0198643
0.01941453
0.0199268
0.02235912
0.0273635
0.03531808
0.04573788
0.05226645
0.05601961
0.05807559
0.0584401
0.05534444
0.03868587
0.08568556
0.07375413
0.06696077
0.06255598
0.05895978
0.05489552
0.04891264
0.04153239
0.03528566
0.03042216
0.02674645
0.02407602
0.02229633
0.02131251
0.02095751
0.02092693
0.02086148
0.02051713
0.02024208
0.02094387
0.0235244
0.02857323
0.03639956
0.04645154
0.05250011
0.05583054
0.05748153
0.05743052
0.05391638
0.03735005
0.08545384
0.07355465
0.06698923
0.06288664
0.05966485
0.05612602
0.05108454
0.04329028
0.03656681
0.03128698
0.02729269
0.02440691
0.02251135
0.02150348
0.02119873
0.02126409
0.02131899
0.02111949
0.02103813
0.02198165
0.02481702
0.03007507
0.03795729
0.04775168
0.05339596
0.05630085
0.05746531
0.05679599
0.05245241
0.03549029
0.08531115
0.07381921
0.06784637
0.0643111
0.06163755
0.05869454
0.05422589
0.04627133
0.03862391
0.03252751
0.02798443
0.02477004
0.02270833
0.02165549
0.02139039
0.02154253
0.02170964
0.02165523
0.02178277
0.02303254
0.02629461
0.0321073
0.04057339
0.05060955
0.05607024
0.05863294
0.05934962
0.05800504
0.05243328
0.03369761
0.0859429
0.0760379
0.07142292
0.06889501
0.06703228
0.06482672
0.0608599
0.05257382
0.04208871
0.03425186
0.02881718
0.02515856
0.02289373
0.02177983
0.02153739
0.02175389
0.02201147
0.02209305
0.02243853
0.02405849
0.02797368
0.03495732
0.04533695
0.05740658
0.06294363
0.06521856
0.06574557
0.06430888
0.05830186
0.03662147
0.09016862
0.08487432
0.08289511
0.08195031
0.08128643
0.08031796
0.07751468
0.06712492
0.04659496
0.0359391
0.0295349
0.02548764
0.0230486
0.02184804
0.02155615
0.02174739
0.02202528
0.02223332
0.02283503
0.02486859
0.02953948
0.03827469
0.05312707
0.07499466
0.07954432
0.08086939
0.08129522
0.08097444
0.07858234
0.06396794
0.09012443
0.08421722
0.08174532
0.08044869
0.0794618
0.07795773
0.07349821
0.05379775
0.0416981
0.0338423
0.02857808
0.02502308
0.02273915
0.02146829
0.02095015
0.02085025
0.02088736
0.0209977
0.02157639
0.02346794
0.02766033
0.03527339
0.04837105
0.07223192
0.07727751
0.07889226
0.07955199
0.07954156
0.07791069
0.06537498
0.0853104
0.0738165
0.06784001
0.06429756
0.06160996
0.05864244
0.05414745
0.04618382
0.03856912
0.03249328
0.0279572
0.02472166
0.02258779
0.02138818
0.02089856
0.02079663
0.02079075
0.02076766
0.0210991
0.0226089
0.02610435
0.03208351
0.04065561
0.05076396
0.05620237
0.05872947
0.05942138
0.05806137
0.05247735
0.03371674
0.08437232
0.07075581
0.0628575
0.05788181
0.05417078
0.05064241
0.04653631
0.04120378
0.03577359
0.03103024
0.02722592
0.02437155
0.02241072
0.02124722
0.02070003
0.02048728
0.02035036
0.02017899
0.02031641
0.02149727
0.02433954
0.02900942
0.03512546
0.04150576
0.04597035
0.04829635
0.04866199
0.04655215
0.03998612
0.02316901
0.08439289
0.07015104
0.06136493
0.05557786
0.05122843
0.0473129
0.04318445
0.03852162
0.03395194
0.02991637
0.02659788
0.02403856
0.02222176
0.02107929
0.02045599
0.02010591
0.0198092
0.01947013
0.01941601
0.02032607
0.02272076
0.02666424
0.03175892
0.03708375
0.04113082
0.04341385
0.04388868
0.04205057
0.03623754
0.02151803
0.08457754
0.07023324
0.06109081
0.0548797
0.05012511
0.04589009
0.04157434
0.03706207
0.03281927
0.02912839
0.0260933
0.02372893
0.02201098
0.02086948
0.02015721
0.01965476
0.01918002
0.01865854
0.01842007
0.01913036
0.02127408
0.02490397
0.02969028
0.0348651
0.0390186
0.04159161
0.04251968
0.04135298
0.03651436
0.02259319
0.08473481
0.07042416
0.0611497
0.05472214
0.0497122
0.0452355
0.04072041
0.03619598
0.03207474
0.02855466
0.02568142
0.02343695
0.02177601
0.02061359
0.01979841
0.01912916
0.01846004
0.01774516
0.0173367
0.0179185
0.01996239
0.02352562
0.02833776
0.03370984
0.03822266
0.04123569
0.04267889
0.04211528
0.03791729
0.02393363
0.08483652
0.07057096
0.06124307
0.05469435
0.04951166
0.04484842
0.04013031
0.03557495
0.03152176
0.02810563
0.02533283
0.0231611
0.02152532
0.02032162
0.01938774
0.01853468
0.01765367
0.01673675
0.01617988
0.01670082
0.01875245
0.02238157
0.02735401
0.03302416
0.03795751
0.04141116
0.0432925
0.04315306
0.03929445
0.02496556
0.0848929
0.07065464
0.06129624
0.05466837
0.0493588
0.04455896
0.03967164
0.03509188
0.03108782
0.02774213
0.0250344
0.0229054
0.02127245
0.02001081
0.01894177
0.01788462
0.01677173
0.01564602
0.01497039
0.01549377
0.01762555
0.02138067
0.02654437
0.03249676
0.03782873
0.04166816
0.04389207
0.04403645
0.04035063
0.0256744
0.08491907
0.07069
0.06130678
0.05462188
0.04922316
0.04433867
0.03935736
0.03474596
0.03075863
0.02745067
0.02478136
0.02267532
0.02103141
0.0197007
0.01848191
0.0171993
0.01583363
0.01449639
0.01373941
0.01432048
0.01657532
0.02047391
0.0258182
0.03202006
0.03767812
0.0418402
0.04433132
0.04467267
0.04108256
0.02613941
0.08492731
0.07069516
0.06128798
0.05455726
0.04909522
0.04415098
0.03911519
0.03448005
0.03049906
0.0272136
0.02456885
0.0224757
0.02081491
0.01941102
0.01803446
0.01651147
0.01487946
0.01333784
0.0125384
0.01321316
0.01560424
0.01963714
0.02513426
0.03154133
0.0374626
0.04189341
0.04459816
0.04508523
0.04155751
0.02643247
0.08492614
0.07068437
0.06125293
0.0544802
0.04896563
0.04396595
0.03889514
0.03425177
0.03028266
0.02701805
0.02439338
0.0223095
0.02063182
0.01915951
0.01763403
0.0158815
0.01399513
0.01227056
0.01144931
0.01221551
0.01472251
0.01886116
0.0244766
0.03105053
0.03718452
0.04184336
0.04472456
0.04532589
0.04184565
0.02660708
0.08492116
0.07066752
0.06121225
0.05439788
0.04882907
0.04376697
0.03867792
0.03404613
0.03010013
0.02685923
0.02425301
0.02217669
0.02048548
0.01896056
0.01732351
0.01539936
0.01331481
0.01143977
0.01057761
0.01138149
0.01394929
0.01814574
0.02382939
0.03052052
0.03684767
0.04171516
0.0447502
0.04544554
0.04200483
0.02670223
0.08491574
0.07065143
0.06117604
0.05432514
0.04870454
0.04357054
0.03848325
0.0338765
0.02995723
0.02673809
0.02414628
0.022075
0.02037581
0.0188239
0.01713548
0.01513575
0.01295431
0.01097922
0.01002691
0.01077341
0.01331832
0.01750419
0.02317548
0.0298952
0.03644205
0.04153139
0.04471149
0.04548707
0.04208002
0.02674665
0.08491183
0.07064015
0.06115118
0.05427587
0.04861866
0.04342912
0.03834711
0.03376029
0.02986124
0.02665693
0.02407303
0.0220034
0.020303
0.01875462
0.01708511
0.01512358
0.01297561
0.01097646
0.009883733
0.01046175
0.01288553
0.01699022
0.02257947
0.02926793
0.03602737
0.04133365
0.04464456
0.04548573
0.04210562
0.02676161
0.08491038
0.0706357
0.06114062
0.05425345
0.04857848
0.04336687
0.03828444
0.03370778
0.02981822
0.02661871
0.02403483
0.02196352
0.0202692
0.01875512
0.01717571
0.01536921
0.0133894
0.01145352
0.0101888
0.01050234
0.0127146
0.01669937
0.02221811
0.02889908
0.03576365
0.04119676
0.0445875
0.0454691
0.04210637
0.02676193
0.08491174
0.07063896
0.0611464
0.05426249
0.04859317
0.04339503
0.03830775
0.03372786
0.02983305
0.02662638
0.02403498
0.02196018
0.02027913
0.01882268
0.01738229
0.01580477
0.01407806
0.01229336
0.01088612
0.0108968
0.01283727
0.01666913
0.02211641
0.02877203
0.03566747
0.04113984
0.0445565
0.04545151
0.04209567
0.02675661
0.08491585
0.07064981
0.06116862
0.05430465
0.04866188
0.04348898
0.03841084
0.0338178
0.02990359
0.02667923
0.02407483
0.02199638
0.02033378
0.01894449
0.01765385
0.0163111
0.01484031
0.01323868
0.01178333
0.01155471
0.01322963
0.01689531
0.02226531
0.02887961
0.0357229
0.0411587
0.04455126
0.04543294
0.04207309
0.02674491
0.08492215
0.07066668
0.06120363
0.05437188
0.04877368
0.04365589
0.03858075
0.03396392
0.03002153
0.02677346
0.0241533
0.022072
0.02043117
0.01910978
0.01795683
0.01681804
0.01556756
0.01413852
0.01270871
0.01233565
0.0138095
0.0173375
0.02264548
0.02920296
0.03592784
0.04124542
0.04456123
0.04540163
0.04202638
0.02671858
0.08492947
0.07068703
0.06124683
0.05445599
0.04891609
0.04388351
0.03879975
0.0341516
0.030178
0.02690475
0.02426843
0.02218536
0.02056784
0.01931177
0.0182813
0.01731455
0.01624648
0.01496415
0.01359987
0.01316447
0.01451418
0.01795601
0.02324948
0.02979219
0.03628239
0.0413832
0.04456499
0.04533489
0.04193292
0.02666345
0.08493575
0.07070627
0.06128968
0.05453779
0.04904639
0.04406934
0.03900568
0.03435284
0.03036213
0.02706926
0.02441857
0.02233453
0.0207405
0.01954633
0.01862585
0.01780727
0.01689328
0.0157353
0.01445582
0.01401739
0.01530519
0.01869184
0.023965
0.03044635
0.03667812
0.04151523
0.04452414
0.0451984
0.04175969
0.02655951
0.0849375
0.07071798
0.0613248
0.05461213
0.04916912
0.04424038
0.03921247
0.03457351
0.03057684
0.02726833
0.02460338
0.02251724
0.02094514
0.01980933
0.01898994
0.01830388
0.01752613
0.01647891
0.01529596
0.01489584
0.01616219
0.01949165
0.02468297
0.03101607
0.03699867
0.04157398
0.04439122
0.0449478
0.04146233
0.02637928
0.08492914
0.07071235
0.06134243
0.05467466
0.04929772
0.04442392
0.03945134
0.03483899
0.03083847
0.02751008
0.02482461
0.02273057
0.02117582
0.02009401
0.01936929
0.0188062
0.01815521
0.01721386
0.01613821
0.01580712
0.01708001
0.02034632
0.02540714
0.03152907
0.03723797
0.04152979
0.04412449
0.04453203
0.04098364
0.02608449
0.08490216
0.07067526
0.06132945
0.05471848
0.04943197
0.0446459
0.03977121
0.0351939
0.03117639
0.02780931
0.02508619
0.02297098
0.02142425
0.02038992
0.01975426
0.01930835
0.01878039
0.01794716
0.01699195
0.01675753
0.01806325
0.02126939
0.02617119
0.03203313
0.0374155
0.04137424
0.04369341
0.04389953
0.04025363
0.02562169
0.08484444
0.07058884
0.0612726
0.05474064
0.04958097
0.04493821
0.04023602
0.03569021
0.03162288
0.02818231
0.02539258
0.02323416
0.02167992
0.02068309
0.02013026
0.01979753
0.01939228
0.01867445
0.01785621
0.01774875
0.01912144
0.02228845
0.02702598
0.03259519
0.03758529
0.04114442
0.04310994
0.04302592
0.03920426
0.02491843
0.08474107
0.07043863
0.06117446
0.05476277
0.04977634
0.04532757
0.04085096
0.03632533
0.0321835
0.02863671
0.02574609
0.02351453
0.02193054
0.02095727
0.02047982
0.02025694
0.01997535
0.01938264
0.01872054
0.01877707
0.02026947
0.02345321
0.02806378
0.03334088
0.0379032
0.04100366
0.04251761
0.04200168
0.03783697
0.02389422
0.08458206
0.07024412
0.06111026
0.05491269
0.05017844
0.04596723
0.04168321
0.03717535
0.03291864
0.02920629
0.02615728
0.02380709
0.0221628
0.02119603
0.02078615
0.0206701
0.02051265
0.0200543
0.01956827
0.01983513
0.02153157
0.02485334
0.02947111
0.0345621
0.03875397
0.04139605
0.04238106
0.04125374
0.03644435
0.02256194
0.08439584
0.07015872
0.06137964
0.05560414
0.0512729
0.04738094
0.04329384
0.03862561
0.03404035
0.02998562
0.02665607
0.02411268
0.02236779
0.02138895
0.02103925
0.02102641
0.02099112
0.02067283
0.02038111
0.02091496
0.0229448
0.02663637
0.03158951
0.03684072
0.04091626
0.04325308
0.04377252
0.04196564
0.03617728
0.02149376
0.08437402
0.07076091
0.0628683
0.05790244
0.0542073
0.05069942
0.04661736
0.04129298
0.03584905
0.03108724
0.02727354
0.0244372
0.02254822
0.02154033
0.021243
0.02132618
0.02140567
0.02122682
0.02114261
0.02200621
0.02454974
0.02900956
0.03500222
0.04131731
0.04580154
0.04817112
0.04857129
0.0464846
0.03993711
0.02315057
0.08531116
0.07381933
0.06784673
0.06431192
0.06163912
0.05869303
0.05419641
0.04627713
0.03863175
0.03253405
0.02799023
0.02477609
0.02271596
0.02166657
0.02140679
0.02156544
0.02173941
0.02169126
0.02182156
0.02306832
0.02632277
0.0321268
0.04058569
0.0506177
0.05608431
0.05864783
0.05936383
0.05801825