/*--------------------------------*- C++ -*----------------------------------*\
| =========                 |                                                 |
| \\      /  F ield         | OpenFOAM: The Open Source CFD Toolbox           |
|  \\    /   O peration     | Version:  2506                                  |
|   \\  /    A nd           | Website:  www.openfoam.com                      |
|    \\/     M anipulation  |                                                 |
\*---------------------------------------------------------------------------*/
FoamFile
{
    version     2.0;
    format      ascii;
    arch        "LSB;label=32;scalar=64";
    class       volScalarField;
    location    "300/airRegion";
    object      T;
}
// * * * * * * * * * * * * * * * * * * * * * * * * * * * * * * * * * * * * * //

dimensions      [0 0 0 1 0 0 0];

internalField   nonuniform List<scalar> 
85779
(
300.0004
300.0007
300.0009
300.001
300.0012
300.0016
300.0025
300.006
300.0222
300.0345
300.045
300.0541
300.0613
300.0656
300.0648
300.0566
300.0396
300.0152
299.9948
299.9834
299.9809
299.9849
299.9937
299.998
299.999
299.9993
299.9995
299.9996
299.9997
299.9999
300.0008
300.0016
300.0021
300.0026
300.0031
300.004
300.006
300.0121
300.0257
300.0368
300.0467
300.0553
300.0624
300.0665
300.0656
300.0572
300.0399
300.015
299.9939
299.9821
299.9793
299.9825
299.9889
299.9958
299.9976
299.9983
299.9987
299.999
299.9993
299.9999
300.001
300.0021
300.0029
300.0036
300.0044
300.0057
300.0089
300.0198
300.0302
300.04
300.049
300.0572
300.0639
300.0678
300.0666
300.058
300.0402
300.0146
299.9926
299.9802
299.9772
299.9802
299.9864
299.9946
299.9968
299.9978
299.9983
299.9988
299.9992
300
300.0011
300.0024
300.0033
300.0041
300.0052
300.0069
300.0129
300.0238
300.0337
300.0428
300.0514
300.0592
300.0656
300.0692
300.0678
300.0589
300.0406
300.0142
299.9911
299.9783
299.9751
299.9783
299.9849
299.9941
299.9965
299.9976
299.9982
299.9988
299.9993
300
300.0012
300.0025
300.0035
300.0045
300.0056
300.0078
300.0136
300.0262
300.0362
300.0452
300.0535
300.061
300.0671
300.0705
300.0689
300.0597
300.0409
300.0136
299.9895
299.9763
299.9732
299.9767
299.9839
299.9937
299.9964
299.9976
299.9983
299.9989
299.9994
300.0001
300.0012
300.0026
300.0036
300.0046
300.006
300.0085
300.0151
300.0282
300.0383
300.0471
300.0552
300.0625
300.0684
300.0716
300.0699
300.0604
300.0409
300.0127
299.9877
299.9742
299.9714
299.9754
299.9831
299.9936
299.9964
299.9976
299.9984
299.999
299.9994
300.0002
300.0012
300.0026
300.0037
300.0047
300.0062
300.0092
300.0188
300.0303
300.04
300.0486
300.0566
300.0638
300.0695
300.0725
300.0706
300.0608
300.0407
300.0116
299.9856
299.9721
299.9697
299.9742
299.9825
299.9935
299.9964
299.9977
299.9985
299.9991
299.9995
300.0002
300.0013
300.0026
300.0037
300.0048
300.0064
300.0099
300.022
300.0322
300.0414
300.0498
300.0577
300.0647
300.0703
300.0732
300.0711
300.061
300.0402
300.01
299.9832
299.9699
299.968
299.9731
299.9819
299.9933
299.9965
299.9978
299.9986
299.9992
299.9996
300.0002
300.0013
300.0026
300.0037
300.0049
300.0065
300.0102
300.023
300.0332
300.0423
300.0507
300.0585
300.0654
300.0709
300.0736
300.0714
300.0609
300.0393
300.008
299.9806
299.9676
299.9664
299.9721
299.9813
299.9932
299.9965
299.9979
299.9987
299.9992
299.9996
300.0002
300.0013
300.0026
300.0037
300.0049
300.0066
300.0104
300.0235
300.0338
300.0429
300.0513
300.059
300.0659
300.0713
300.074
300.0716
300.0607
300.0383
300.0058
299.9779
299.9653
299.9648
299.9711
299.9808
299.993
299.9964
299.9979
299.9987
299.9993
299.9996
300.0002
300.0013
300.0026
300.0037
300.0049
300.0067
300.0107
300.0239
300.0343
300.0434
300.0517
300.0594
300.0662
300.0716
300.0742
300.0717
300.0606
300.0375
300.004
299.9756
299.9634
299.9635
299.9702
299.9802
299.9928
299.9964
299.9979
299.9988
299.9993
299.9996
300.0002
300.0013
300.0026
300.0038
300.005
300.0068
300.0111
300.0243
300.0346
300.0437
300.052
300.0597
300.0665
300.0718
300.0744
300.0719
300.0608
300.0374
300.0033
299.9745
299.9622
299.9625
299.9694
299.9796
299.9924
299.9963
299.9979
299.9988
299.9993
299.9997
300.0002
300.0013
300.0026
300.0038
300.005
300.007
300.0122
300.0248
300.035
300.044
300.0523
300.0599
300.0667
300.072
300.0747
300.0724
300.0615
300.0385
300.0045
299.975
299.9621
299.962
299.9688
299.9789
299.9905
299.9961
299.9979
299.9988
299.9993
299.9997
300.0002
300.0013
300.0026
300.0038
300.0051
300.0071
300.012
300.025
300.0352
300.0442
300.0524
300.0601
300.0668
300.0722
300.0751
300.0731
300.063
300.041
300.0078
299.9775
299.9633
299.9622
299.9685
299.9782
299.9906
299.9959
299.9978
299.9988
299.9993
299.9997
300.0002
300.0013
300.0026
300.0038
300.0051
300.0072
300.0122
300.0252
300.0353
300.0443
300.0525
300.0601
300.067
300.0725
300.0755
300.0741
300.065
300.0446
300.013
299.9819
299.9658
299.9632
299.9686
299.9779
299.9892
299.9957
299.9978
299.9987
299.9993
299.9997
300.0002
300.0013
300.0026
300.0038
300.0051
300.0072
300.0128
300.0253
300.0353
300.0442
300.0525
300.0601
300.067
300.0726
300.0759
300.075
300.0669
300.0484
300.0187
299.9873
299.9693
299.9648
299.9693
299.9782
299.9903
299.9958
299.9978
299.9987
299.9993
299.9997
300.0002
300.0013
300.0026
300.0038
300.0051
300.0072
300.0139
300.0252
300.0351
300.0441
300.0524
300.0601
300.067
300.0728
300.0763
300.0757
300.0684
300.0514
300.0236
299.9925
299.9731
299.9669
299.9702
299.9786
299.9893
299.9958
299.9978
299.9987
299.9993
299.9997
300.0002
300.0013
300.0026
300.0038
300.005
300.007
300.0134
300.0248
300.0348
300.0439
300.0522
300.06
300.067
300.0728
300.0764
300.0761
300.0694
300.0534
300.0272
299.9967
299.9764
299.969
299.9714
299.9793
299.9908
299.9959
299.9978
299.9987
299.9993
299.9997
300.0002
300.0013
300.0026
300.0038
300.005
300.0067
300.0109
300.0241
300.0344
300.0436
300.052
300.0597
300.0668
300.0727
300.0764
300.0763
300.0698
300.0544
300.0292
299.9996
299.9791
299.9708
299.9726
299.9803
299.9919
299.9961
299.9979
299.9987
299.9993
299.9997
300.0002
300.0013
300.0026
300.0037
300.0049
300.0066
300.0105
300.0237
300.0341
300.0432
300.0516
300.0595
300.0666
300.0725
300.0763
300.0762
300.0698
300.0547
300.0301
300.0014
299.9809
299.9724
299.9738
299.9813
299.9928
299.9963
299.9979
299.9987
299.9993
299.9996
300.0002
300.0013
300.0026
300.0037
300.0049
300.0065
300.0103
300.0233
300.0337
300.0428
300.0512
300.059
300.0662
300.0722
300.076
300.0759
300.0694
300.0544
300.0301
300.0022
299.9822
299.9735
299.9747
299.982
299.9931
299.9964
299.9979
299.9987
299.9993
299.9996
300.0002
300.0013
300.0026
300.0037
300.0048
300.0065
300.0101
300.0228
300.033
300.0421
300.0506
300.0585
300.0657
300.0717
300.0755
300.0753
300.0687
300.0536
300.0295
300.0023
299.9828
299.9744
299.9755
299.9825
299.9933
299.9965
299.9979
299.9987
299.9992
299.9996
300.0002
300.0013
300.0026
300.0037
300.0048
300.0063
300.0098
300.0218
300.032
300.0412
300.0497
300.0577
300.0649
300.071
300.0748
300.0746
300.0678
300.0525
300.0283
300.002
299.9832
299.9751
299.9762
299.983
299.9935
299.9965
299.9978
299.9986
299.9992
299.9996
300.0002
300.0012
300.0026
300.0037
300.0047
300.0062
300.0091
300.0194
300.0302
300.0397
300.0485
300.0566
300.0639
300.0701
300.0739
300.0736
300.0667
300.0512
300.027
300.0014
299.9834
299.9758
299.9769
299.9834
299.9936
299.9964
299.9977
299.9985
299.9991
299.9995
300.0002
300.0012
300.0026
300.0036
300.0046
300.0059
300.0084
300.0167
300.0281
300.038
300.0469
300.0552
300.0627
300.069
300.0728
300.0724
300.0654
300.0497
300.0255
300.0008
299.9837
299.9766
299.9777
299.9839
299.9937
299.9964
299.9976
299.9984
299.999
299.9994
300.0002
300.0012
300.0025
300.0035
300.0045
300.0056
300.0077
300.0134
300.026
300.036
300.045
300.0534
300.0611
300.0676
300.0715
300.0711
300.0639
300.0482
300.0241
300.0003
299.9841
299.9775
299.9787
299.9846
299.9939
299.9964
299.9976
299.9983
299.9989
299.9994
300.0001
300.0011
300.0024
300.0033
300.0041
300.0051
300.0068
300.0111
300.0234
300.0334
300.0427
300.0513
300.0593
300.066
300.0701
300.0697
300.0624
300.0467
300.0228
300.0001
299.9848
299.9787
299.98
299.9855
299.9942
299.9965
299.9976
299.9982
299.9988
299.9993
300
300.001
300.0021
300.0029
300.0036
300.0043
300.0056
300.0088
300.0197
300.0301
300.0398
300.049
300.0573
300.0643
300.0686
300.0682
300.061
300.0454
300.0218
300
299.9857
299.9803
299.9817
299.987
299.9947
299.9968
299.9978
299.9983
299.9988
299.9992
300
300.0008
300.0016
300.0021
300.0026
300.0031
300.0039
300.006
300.0121
300.0256
300.0367
300.0466
300.0554
300.0627
300.0672
300.0669
300.0598
300.0442
300.0211
300.0002
299.9867
299.982
299.9838
299.9893
299.9959
299.9976
299.9983
299.9987
299.999
299.9993
299.9999
300.0004
300.0007
300.0009
300.001
300.0012
300.0016
300.0025
300.006
300.0221
300.0345
300.045
300.0542
300.0616
300.0663
300.0661
300.0589
300.0435
300.0207
300.0004
299.9876
299.9834
299.9861
299.994
299.9981
299.999
299.9993
299.9995
299.9996
299.9997
299.9999
300.0008
300.0016
300.0021
300.0026
300.0031
300.004
300.006
300.0121
300.0257
300.0368
300.0467
300.0553
300.0624
300.0665
300.0656
300.0573
300.0401
300.0154
299.9943
299.9823
299.9794
299.9826
299.9889
299.9958
299.9976
299.9983
299.9987
299.999
299.9993
299.9999
300.0018
300.0038
300.0053
300.0066
300.008
300.01
300.0134
300.0199
300.0295
300.0392
300.0483
300.0566
300.0634
300.0674
300.0663
300.0578
300.0403
300.015
299.9933
299.9809
299.9777
299.9804
299.9858
299.9912
299.994
299.9956
299.9966
299.9974
299.998
299.9989
300.0024
300.0051
300.0073
300.0092
300.0113
300.0141
300.0183
300.0252
300.0335
300.0422
300.0507
300.0585
300.065
300.0686
300.0674
300.0586
300.0406
300.0145
299.9919
299.979
299.9755
299.978
299.9831
299.9884
299.9918
299.9938
299.9952
299.9964
299.9974
299.9987
300.0026
300.0058
300.0084
300.0108
300.0134
300.0167
300.0217
300.0289
300.0369
300.0451
300.0531
300.0605
300.0666
300.07
300.0685
300.0594
300.0408
300.0139
299.9902
299.9768
299.9732
299.9758
299.981
299.9868
299.9905
299.9929
299.9947
299.9961
299.9974
299.9989
300.0028
300.0061
300.009
300.0117
300.0146
300.0185
300.024
300.0315
300.0395
300.0474
300.0551
300.0623
300.0681
300.0713
300.0695
300.0601
300.0409
300.0131
299.9884
299.9746
299.9711
299.9739
299.9796
299.9859
299.99
299.9927
299.9947
299.9962
299.9976
299.9993
300.0028
300.0063
300.0093
300.0122
300.0154
300.0196
300.0256
300.0334
300.0414
300.0493
300.0568
300.0638
300.0694
300.0723
300.0704
300.0606
300.0408
300.012
299.9863
299.9724
299.9691
299.9724
299.9787
299.9855
299.99
299.9929
299.9949
299.9965
299.9979
299.9996
300.0029
300.0064
300.0094
300.0124
300.0158
300.0204
300.027
300.0349
300.0429
300.0507
300.0581
300.0649
300.0704
300.0732
300.071
300.0609
300.0403
300.0105
299.984
299.9701
299.9673
299.9712
299.9779
299.9852
299.99
299.9931
299.9952
299.9969
299.9982
299.9998
300.0029
300.0064
300.0095
300.0126
300.0161
300.021
300.0282
300.0361
300.044
300.0517
300.0591
300.0658
300.0711
300.0738
300.0714
300.0609
300.0395
300.0086
299.9813
299.9677
299.9655
299.97
299.9773
299.985
299.9901
299.9933
299.9955
299.9971
299.9984
299.9999
300.0029
300.0064
300.0096
300.0127
300.0163
300.0214
300.0289
300.0369
300.0448
300.0525
300.0598
300.0664
300.0716
300.0742
300.0716
300.0607
300.0383
300.0061
299.9783
299.9652
299.9638
299.9689
299.9767
299.9848
299.9901
299.9935
299.9957
299.9973
299.9985
300
300.0029
300.0064
300.0096
300.0128
300.0165
300.0216
300.0293
300.0373
300.0453
300.053
300.0603
300.0669
300.072
300.0744
300.0717
300.0602
300.0368
300.0033
299.9752
299.9627
299.9622
299.9679
299.9761
299.9845
299.9901
299.9936
299.9959
299.9975
299.9986
300
300.0029
300.0065
300.0096
300.0128
300.0167
300.0219
300.0296
300.0377
300.0457
300.0534
300.0607
300.0672
300.0722
300.0746
300.0717
300.0598
300.0354
300.0009
299.9725
299.9607
299.9607
299.9669
299.9755
299.9842
299.99
299.9937
299.996
299.9976
299.9987
300.0001
300.0029
300.0065
300.0096
300.0129
300.0168
300.0222
300.0299
300.038
300.046
300.0537
300.0609
300.0674
300.0724
300.0747
300.0718
300.0598
300.035
299.9999
299.9711
299.9593
299.9596
299.9661
299.9749
299.9838
299.9899
299.9936
299.996
299.9976
299.9987
300.0001
300.0029
300.0065
300.0097
300.013
300.017
300.0226
300.0302
300.0383
300.0462
300.0539
300.0611
300.0676
300.0726
300.075
300.0723
300.0606
300.0361
300.0011
299.9716
299.9592
299.9591
299.9655
299.9743
299.9833
299.9897
299.9936
299.996
299.9976
299.9987
300.0001
300.0029
300.0065
300.0097
300.013
300.0171
300.0227
300.0304
300.0384
300.0464
300.054
300.0612
300.0677
300.0728
300.0754
300.0731
300.0622
300.039
300.0049
299.9745
299.9605
299.9594
299.9652
299.9738
299.9828
299.9894
299.9935
299.996
299.9976
299.9987
300.0001
300.0029
300.0065
300.0097
300.013
300.0172
300.0228
300.0305
300.0385
300.0464
300.0541
300.0613
300.0678
300.0731
300.0759
300.0742
300.0645
300.0433
300.0109
299.9795
299.9633
299.9604
299.9654
299.9737
299.9825
299.9893
299.9934
299.996
299.9976
299.9987
300.0001
300.0029
300.0065
300.0097
300.013
300.0172
300.0229
300.0305
300.0385
300.0464
300.0541
300.0613
300.0679
300.0733
300.0764
300.0752
300.0668
300.0478
300.0177
299.9857
299.9672
299.9622
299.9661
299.9739
299.9826
299.9893
299.9934
299.996
299.9976
299.9987
300.0001
300.0029
300.0065
300.0097
300.013
300.0171
300.0227
300.0303
300.0384
300.0463
300.054
300.0613
300.0679
300.0734
300.0767
300.076
300.0686
300.0513
300.0234
299.9916
299.9714
299.9645
299.9671
299.9743
299.9827
299.9894
299.9934
299.996
299.9976
299.9987
300.0001
300.0029
300.0065
300.0097
300.0129
300.0169
300.0225
300.0301
300.0381
300.0461
300.0538
300.0612
300.0679
300.0735
300.0769
300.0765
300.0697
300.0536
300.0273
299.9962
299.975
299.9667
299.9684
299.975
299.9831
299.9895
299.9935
299.996
299.9976
299.9987
300.0001
300.0029
300.0065
300.0096
300.0129
300.0167
300.022
300.0297
300.0379
300.0459
300.0536
300.061
300.0677
300.0734
300.077
300.0767
300.0702
300.0548
300.0295
299.9993
299.9778
299.9687
299.9696
299.9758
299.9837
299.9897
299.9936
299.996
299.9976
299.9987
300.0001
300.0029
300.0065
300.0096
300.0128
300.0166
300.0218
300.0295
300.0376
300.0456
300.0533
300.0607
300.0675
300.0732
300.0769
300.0767
300.0702
300.0551
300.0305
300.0011
299.9798
299.9702
299.9707
299.9766
299.9843
299.99
299.9936
299.9959
299.9975
299.9987
300.0001
300.0029
300.0064
300.0096
300.0127
300.0164
300.0215
300.0292
300.0372
300.0452
300.0529
300.0604
300.0672
300.0729
300.0766
300.0764
300.0699
300.0548
300.0305
300.0019
299.981
299.9714
299.9716
299.9773
299.9847
299.9901
299.9936
299.9958
299.9974
299.9986
300
300.0029
300.0064
300.0095
300.0126
300.0163
300.0213
300.0287
300.0367
300.0446
300.0524
300.0598
300.0667
300.0725
300.0761
300.0758
300.0692
300.054
300.0297
300.002
299.9817
299.9723
299.9724
299.9778
299.985
299.9901
299.9934
299.9957
299.9973
299.9985
300
300.0029
300.0064
300.0095
300.0125
300.0161
300.0209
300.0281
300.0359
300.0438
300.0516
300.0591
300.066
300.0719
300.0755
300.0751
300.0683
300.0529
300.0286
300.0016
299.982
299.973
299.9731
299.9783
299.9852
299.9901
299.9933
299.9955
299.9971
299.9983
299.9999
300.0029
300.0064
300.0094
300.0124
300.0158
300.0203
300.0269
300.0347
300.0427
300.0505
300.0581
300.0651
300.071
300.0747
300.0742
300.0672
300.0516
300.0272
300.001
299.9822
299.9737
299.9738
299.9788
299.9853
299.99
299.993
299.9952
299.9968
299.9981
299.9998
300.0028
300.0063
300.0093
300.0121
300.0153
300.0195
300.0255
300.0332
300.0412
300.0491
300.0568
300.0639
300.0699
300.0736
300.0731
300.066
300.0502
300.0258
300.0004
299.9825
299.9745
299.9747
299.9794
299.9856
299.9899
299.9928
299.9949
299.9965
299.9979
299.9996
300.0028
300.0061
300.009
300.0117
300.0146
300.0184
300.0238
300.0313
300.0392
300.0472
300.0551
300.0624
300.0686
300.0724
300.0718
300.0646
300.0487
300.0244
300
299.983
299.9756
299.9759
299.9803
299.9861
299.99
299.9927
299.9946
299.9962
299.9976
299.9993
300.0026
300.0058
300.0084
300.0108
300.0134
300.0167
300.0215
300.0287
300.0367
300.0449
300.053
300.0606
300.067
300.0709
300.0705
300.0631
300.0473
300.0232
299.9997
299.9837
299.977
299.9774
299.9816
299.9869
299.9905
299.9929
299.9947
299.9961
299.9973
299.9989
300.0024
300.0051
300.0073
300.0092
300.0113
300.014
300.0182
300.0251
300.0334
300.0421
300.0506
300.0586
300.0653
300.0695
300.0691
300.0618
300.046
300.0222
299.9998
299.9848
299.9787
299.9794
299.9836
299.9886
299.9918
299.9938
299.9952
299.9964
299.9974
299.9987
300.0018
300.0038
300.0053
300.0066
300.008
300.0099
300.0133
300.0199
300.0294
300.039
300.0483
300.0567
300.0637
300.0681
300.0678
300.0606
300.0449
300.0215
300
299.9859
299.9806
299.9818
299.9863
299.9913
299.994
299.9956
299.9966
299.9974
299.998
299.9989
300.0008
300.0016
300.0021
300.0026
300.0031
300.0039
300.006
300.0135
300.0258
300.0367
300.0466
300.0554
300.0627
300.0672
300.0669
300.0598
300.0443
300.0211
300.0003
299.9868
299.982
299.9838
299.9894
299.9959
299.9976
299.9983
299.9987
299.999
299.9993
299.9999
300.001
300.0021
300.0029
300.0036
300.0044
300.0056
300.0088
300.0198
300.0302
300.04
300.049
300.0572
300.0639
300.0678
300.0668
300.0584
300.0409
300.0156
299.9936
299.981
299.9776
299.9804
299.9865
299.9947
299.9968
299.9978
299.9983
299.9988
299.9992
300
300.0024
300.0051
300.0073
300.0092
300.0113
300.0141
300.0183
300.0252
300.0335
300.0422
300.0507
300.0585
300.065
300.0687
300.0675
300.0588
300.041
300.0152
299.9925
299.9794
299.9758
299.9781
299.9831
299.9885
299.9918
299.9938
299.9952
299.9964
299.9974
299.9987
300.0031
300.0069
300.0101
300.013
300.0161
300.0196
300.0241
300.0302
300.0374
300.0452
300.053
300.0604
300.0665
300.0699
300.0685
300.0595
300.0411
300.0144
299.9908
299.9772
299.9732
299.9752
299.9797
299.9844
299.9881
299.9908
299.9928
299.9944
299.9959
299.9975
300.0034
300.0079
300.0117
300.0153
300.019
300.0231
300.0279
300.0339
300.0408
300.048
300.0554
300.0623
300.0681
300.0712
300.0695
300.0601
300.0411
300.0135
299.9889
299.9748
299.9707
299.9726
299.977
299.9818
299.9859
299.9889
299.9914
299.9934
299.9952
299.9973
300.0036
300.0083
300.0126
300.0166
300.0207
300.0252
300.0304
300.0365
300.0433
300.0503
300.0574
300.064
300.0695
300.0724
300.0704
300.0607
300.041
300.0124
299.9867
299.9723
299.9683
299.9704
299.9751
299.9803
299.9847
299.9882
299.9909
299.9932
299.9953
299.9977
300.0037
300.0086
300.013
300.0172
300.0216
300.0265
300.032
300.0383
300.0451
300.0521
300.059
300.0654
300.0707
300.0733
300.0711
300.061
300.0406
300.0109
299.9844
299.9699
299.9661
299.9686
299.9738
299.9794
299.9843
299.9881
299.9911
299.9936
299.9958
299.9983
300.0037
300.0087
300.0132
300.0176
300.0222
300.0273
300.0331
300.0396
300.0464
300.0534
300.0602
300.0665
300.0716
300.0741
300.0716
300.0611
300.0398
300.009
299.9817
299.9673
299.9641
299.9672
299.9729
299.979
299.9842
299.9883
299.9915
299.9941
299.9962
299.9987
300.0037
300.0087
300.0133
300.0178
300.0225
300.0278
300.0338
300.0404
300.0473
300.0543
300.061
300.0673
300.0722
300.0746
300.0719
300.0609
300.0385
300.0064
299.9785
299.9647
299.9622
299.966
299.9722
299.9788
299.9843
299.9886
299.9919
299.9945
299.9966
299.999
300.0038
300.0087
300.0134
300.0179
300.0227
300.0281
300.0342
300.041
300.0479
300.0549
300.0616
300.0678
300.0727
300.0748
300.0719
300.0603
300.0367
300.0031
299.975
299.9619
299.9603
299.9648
299.9716
299.9785
299.9844
299.9889
299.9923
299.9949
299.9969
299.9992
300.0038
300.0088
300.0134
300.018
300.0229
300.0283
300.0345
300.0413
300.0483
300.0553
300.062
300.0682
300.0729
300.075
300.0718
300.0594
300.0343
299.9994
299.9713
299.9592
299.9586
299.9637
299.971
299.9783
299.9845
299.9891
299.9926
299.9951
299.9972
299.9994
300.0038
300.0088
300.0134
300.018
300.023
300.0285
300.0348
300.0416
300.0486
300.0556
300.0623
300.0684
300.0731
300.075
300.0716
300.0585
300.0321
299.996
299.9681
299.9569
299.957
299.9627
299.9704
299.978
299.9844
299.9892
299.9927
299.9953
299.9973
299.9994
300.0038
300.0088
300.0135
300.0181
300.0231
300.0286
300.035
300.0418
300.0488
300.0558
300.0625
300.0686
300.0732
300.0751
300.0716
300.0581
300.031
299.9943
299.9664
299.9555
299.9559
299.9619
299.9698
299.9776
299.9843
299.9892
299.9928
299.9954
299.9974
299.9995
300.0038
300.0088
300.0135
300.0181
300.0232
300.0288
300.0351
300.042
300.049
300.056
300.0626
300.0687
300.0734
300.0754
300.072
300.0588
300.0321
299.9955
299.9669
299.9553
299.9553
299.9613
299.9692
299.9773
299.9841
299.9892
299.9928
299.9954
299.9974
299.9995
300.0038
300.0088
300.0135
300.0182
300.0232
300.0288
300.0352
300.0421
300.0491
300.056
300.0628
300.0688
300.0736
300.0758
300.0729
300.0608
300.0356
300.0001
299.9702
299.9568
299.9556
299.961
299.9689
299.9769
299.9839
299.9891
299.9928
299.9955
299.9974
299.9995
300.0038
300.0088
300.0135
300.0182
300.0232
300.0289
300.0353
300.0421
300.0491
300.0561
300.0628
300.0689
300.0738
300.0763
300.0742
300.0637
300.0411
300.0075
299.976
299.96
299.9568
299.9613
299.9688
299.9768
299.9838
299.989
299.9928
299.9955
299.9974
299.9995
300.0038
300.0088
300.0135
300.0182
300.0232
300.0289
300.0353
300.0421
300.0491
300.0561
300.0628
300.069
300.0741
300.0769
300.0755
300.0667
300.0468
300.0159
299.9834
299.9644
299.9588
299.962
299.969
299.9768
299.9838
299.989
299.9928
299.9955
299.9974
299.9995
300.0038
300.0088
300.0135
300.0182
300.0232
300.0288
300.0352
300.042
300.049
300.056
300.0628
300.0691
300.0743
300.0773
300.0765
300.0688
300.0512
300.0228
299.9902
299.9692
299.9613
299.9632
299.9695
299.977
299.9838
299.9891
299.9928
299.9954
299.9974
299.9995
300.0038
300.0088
300.0135
300.0181
300.0231
300.0287
300.035
300.0419
300.0489
300.0559
300.0628
300.0691
300.0743
300.0776
300.077
300.0701
300.0539
300.0274
299.9954
299.9733
299.9638
299.9645
299.9702
299.9774
299.984
299.9891
299.9928
299.9954
299.9974
299.9995
300.0038
300.0088
300.0134
300.0181
300.023
300.0285
300.0349
300.0417
300.0487
300.0558
300.0626
300.069
300.0743
300.0777
300.0773
300.0707
300.0553
300.03
299.9988
299.9763
299.9659
299.9657
299.971
299.9778
299.9842
299.9891
299.9928
299.9954
299.9973
299.9995
300.0038
300.0088
300.0134
300.018
300.0229
300.0284
300.0347
300.0415
300.0485
300.0556
300.0624
300.0688
300.0742
300.0776
300.0773
300.0708
300.0557
300.031
300.0008
299.9783
299.9675
299.9669
299.9717
299.9783
299.9844
299.9891
299.9927
299.9953
299.9973
299.9994
300.0038
300.0088
300.0134
300.0179
300.0228
300.0282
300.0345
300.0412
300.0482
300.0553
300.0621
300.0686
300.074
300.0774
300.077
300.0705
300.0554
300.0309
300.0016
299.9795
299.9687
299.9678
299.9723
299.9786
299.9844
299.989
299.9925
299.9951
299.9971
299.9994
300.0038
300.0087
300.0133
300.0179
300.0227
300.028
300.0342
300.0408
300.0478
300.0548
300.0617
300.0682
300.0736
300.077
300.0766
300.0699
300.0547
300.0302
300.0016
299.9802
299.9696
299.9685
299.9728
299.9788
299.9844
299.9888
299.9922
299.9948
299.9969
299.9992
300.0037
300.0087
300.0133
300.0178
300.0225
300.0277
300.0337
300.0403
300.0472
300.0542
300.0611
300.0676
300.0731
300.0765
300.0759
300.0691
300.0536
300.029
300.0012
299.9805
299.9703
299.9692
299.9733
299.9789
299.9843
299.9885
299.9919
299.9945
299.9966
299.999
300.0037
300.0087
300.0132
300.0176
300.0221
300.0272
300.033
300.0394
300.0463
300.0533
300.0602
300.0667
300.0723
300.0757
300.0751
300.068
300.0523
300.0276
300.0005
299.9806
299.971
299.97
299.9738
299.9791
299.9842
299.9882
299.9914
299.994
299.9962
299.9987
300.0037
300.0085
300.013
300.0172
300.0216
300.0264
300.0319
300.0382
300.0449
300.052
300.059
300.0656
300.0713
300.0747
300.0741
300.0668
300.0509
300.0262
300
299.9809
299.9719
299.971
299.9746
299.9795
299.9842
299.988
299.991
299.9935
299.9957
299.9982
300.0036
300.0083
300.0126
300.0166
300.0206
300.0251
300.0303
300.0364
300.0431
300.0502
300.0573
300.0642
300.07
300.0736
300.0729
300.0655
300.0496
300.0249
299.9996
299.9815
299.9731
299.9724
299.9758
299.9804
299.9846
299.9881
299.9908
299.9932
299.9953
299.9977
300.0034
300.0078
300.0117
300.0153
300.0189
300.023
300.0278
300.0338
300.0406
300.0479
300.0553
300.0624
300.0685
300.0722
300.0716
300.0642
300.0482
300.0237
299.9994
299.9824
299.9747
299.9743
299.9776
299.9819
299.9858
299.9889
299.9913
299.9934
299.9952
299.9973
300.0031
300.0069
300.0101
300.013
300.016
300.0195
300.024
300.0301
300.0373
300.0451
300.0529
300.0604
300.0668
300.0708
300.0702
300.0629
300.047
300.0229
299.9996
299.9836
299.9767
299.9768
299.9803
299.9846
299.9881
299.9907
299.9927
299.9944
299.9959
299.9975
300.0024
300.0051
300.0073
300.0092
300.0113
300.014
300.0181
300.0251
300.0334
300.0421
300.0506
300.0586
300.0653
300.0694
300.069
300.0618
300.046
300.0223
299.9999
299.9849
299.9788
299.9795
299.9836
299.9886
299.9918
299.9938
299.9952
299.9964
299.9974
299.9987
300.001
300.0021
300.0029
300.0036
300.0043
300.0056
300.0087
300.0198
300.0301
300.0398
300.0489
300.0573
300.0642
300.0685
300.0682
300.061
300.0454
300.022
300.0003
299.9859
299.9805
299.9818
299.987
299.9948
299.9969
299.9978
299.9983
299.9988
299.9992
300
300.0011
300.0024
300.0033
300.0041
300.0052
300.0069
300.0112
300.0236
300.0336
300.0428
300.0514
300.0592
300.0656
300.0693
300.0681
300.0596
300.0418
300.0161
299.9931
299.9797
299.976
299.9787
299.9851
299.9941
299.9965
299.9976
299.9983
299.9988
299.9993
300
300.0026
300.0058
300.0084
300.0108
300.0134
300.0167
300.0216
300.0289
300.0369
300.045
300.0531
300.0605
300.0666
300.0701
300.0688
300.0599
300.0418
300.0155
299.9918
299.978
299.9739
299.9761
299.9812
299.9869
299.9906
299.993
299.9947
299.9961
299.9974
299.999
300.0034
300.0079
300.0117
300.0153
300.019
300.023
300.0279
300.0339
300.0407
300.048
300.0554
300.0623
300.0681
300.0713
300.0696
300.0604
300.0417
300.0145
299.9898
299.9755
299.9711
299.9728
299.9771
299.9819
299.9859
299.989
299.9914
299.9934
299.9952
299.9973
300.0038
300.0089
300.0136
300.018
300.0224
300.027
300.032
300.0377
300.0441
300.0508
300.0577
300.0642
300.0696
300.0724
300.0705
300.0609
300.0415
300.0132
299.9876
299.9728
299.9681
299.9697
299.9738
299.9784
299.9826
299.9861
299.9889
299.9914
299.9937
299.996
300.004
300.0095
300.0146
300.0195
300.0243
300.0293
300.0346
300.0403
300.0465
300.053
300.0596
300.0658
300.0709
300.0735
300.0713
300.0613
300.0411
300.0117
299.9851
299.97
299.9654
299.9671
299.9713
299.9761
299.9806
299.9844
299.9877
299.9905
299.9931
299.9958
300.0041
300.0097
300.0151
300.0202
300.0254
300.0306
300.0362
300.042
300.0483
300.0547
300.0611
300.0671
300.072
300.0744
300.0719
300.0614
300.0404
300.0098
299.9823
299.9673
299.963
299.965
299.9696
299.9747
299.9796
299.9838
299.9873
299.9905
299.9933
299.9963
300.0041
300.0099
300.0153
300.0206
300.0259
300.0314
300.0371
300.0431
300.0494
300.0558
300.0622
300.0681
300.0728
300.075
300.0722
300.0613
300.0392
300.0072
299.9791
299.9644
299.9608
299.9633
299.9684
299.974
299.9792
299.9838
299.9876
299.9909
299.9939
299.9971
300.0042
300.0099
300.0154
300.0208
300.0262
300.0318
300.0377
300.0438
300.0501
300.0566
300.0629
300.0687
300.0733
300.0753
300.0723
300.0607
300.0373
300.0039
299.9754
299.9615
299.9587
299.962
299.9676
299.9736
299.9793
299.9841
299.9881
299.9915
299.9945
299.9977
300.0042
300.0099
300.0155
300.0209
300.0264
300.0321
300.038
300.0442
300.0506
300.0571
300.0634
300.0691
300.0736
300.0755
300.0722
300.0596
300.0345
299.9995
299.9712
299.9584
299.9567
299.9607
299.9669
299.9734
299.9794
299.9845
299.9886
299.9921
299.995
299.9981
300.0042
300.01
300.0155
300.021
300.0265
300.0322
300.0382
300.0445
300.0509
300.0574
300.0637
300.0694
300.0738
300.0755
300.0718
300.0581
300.0309
299.9943
299.9668
299.9554
299.9548
299.9596
299.9663
299.9732
299.9795
299.9848
299.989
299.9925
299.9953
299.9983
300.0042
300.01
300.0155
300.021
300.0266
300.0323
300.0383
300.0446
300.0511
300.0576
300.0639
300.0695
300.0739
300.0755
300.0713
300.0564
300.0272
299.9895
299.963
299.9529
299.9532
299.9586
299.9657
299.9729
299.9794
299.9849
299.9893
299.9927
299.9956
299.9985
300.0042
300.01
300.0155
300.021
300.0266
300.0324
300.0384
300.0448
300.0512
300.0577
300.064
300.0696
300.0739
300.0754
300.0711
300.0554
300.025
299.9869
299.9609
299.9513
299.952
299.9577
299.9651
299.9725
299.9793
299.9849
299.9894
299.9929
299.9957
299.9986
300.0042
300.01
300.0156
300.0211
300.0267
300.0325
300.0385
300.0449
300.0513
300.0578
300.0641
300.0697
300.0741
300.0756
300.0714
300.056
300.0259
299.9881
299.9615
299.9511
299.9514
299.957
299.9645
299.9722
299.9791
299.9849
299.9894
299.993
299.9957
299.9986
300.0042
300.01
300.0156
300.0211
300.0267
300.0325
300.0386
300.0449
300.0514
300.0579
300.0642
300.0699
300.0742
300.076
300.0725
300.0584
300.0303
299.9936
299.9653
299.9528
299.9516
299.9567
299.9641
299.9719
299.9789
299.9848
299.9894
299.993
299.9958
299.9986
300.0042
300.01
300.0156
300.0211
300.0267
300.0325
300.0386
300.0449
300.0514
300.0579
300.0642
300.07
300.0745
300.0767
300.0741
300.0623
300.0376
300.0028
299.9721
299.9564
299.953
299.957
299.964
299.9717
299.9788
299.9848
299.9894
299.993
299.9958
299.9986
300.0042
300.01
300.0156
300.0211
300.0267
300.0325
300.0386
300.0449
300.0514
300.0579
300.0643
300.0701
300.0748
300.0774
300.0757
300.0662
300.0454
300.0135
299.9807
299.9615
299.9552
299.9578
299.9643
299.9718
299.9788
299.9848
299.9894
299.993
299.9958
299.9986
300.0042
300.01
300.0156
300.0211
300.0267
300.0325
300.0386
300.0449
300.0514
300.0579
300.0643
300.0702
300.0751
300.0779
300.0769
300.069
300.051
300.0221
299.9888
299.967
299.9581
299.9591
299.9649
299.9721
299.979
299.9848
299.9894
299.993
299.9958
299.9986
300.0042
300.01
300.0155
300.0211
300.0266
300.0324
300.0385
300.0448
300.0513
300.0579
300.0643
300.0702
300.0752
300.0782
300.0776
300.0706
300.0542
300.0275
299.9947
299.9715
299.9609
299.9606
299.9657
299.9724
299.9791
299.9849
299.9894
299.9929
299.9957
299.9986
300.0042
300.01
300.0155
300.021
300.0266
300.0323
300.0384
300.0447
300.0512
300.0578
300.0642
300.0702
300.0752
300.0784
300.0779
300.0713
300.0559
300.0304
299.9985
299.9748
299.9632
299.962
299.9664
299.9729
299.9793
299.9849
299.9894
299.9929
299.9957
299.9985
300.0042
300.01
300.0155
300.021
300.0265
300.0323
300.0383
300.0446
300.0511
300.0576