/*--------------------------------*- C++ -*----------------------------------*\
| =========                 |                                                 |
| \\      /  F ield         | OpenFOAM: The Open Source CFD Toolbox           |
|  \\    /   O peration     | Version:  2506                                  |
|   \\  /    A nd           | Website:  www.openfoam.com                      |
|    \\/     M anipulation  |                                                 |
\*---------------------------------------------------------------------------*/
FoamFile
{
    version     2.0;
    format      ascii;
    arch        "LSB;label=32;scalar=64";
    class       volVectorField;
    location    "300/airRegion";
    object      U;
}
// * * * * * * * * * * * * * * * * * * * * * * * * * * * * * * * * * * * * * //

dimensions      [0 1 -1 0 0 0 0];

internalField   nonuniform List<vector> 
85779
(
(-0.001370962 -0.00137102 -0.0212678)
(-0.001915066 -0.001915246 -0.02087141)
(-0.001962983 -0.001963397 -0.02024359)
(-0.001997062 -0.001997888 -0.01963524)
(-0.002325314 -0.002325558 -0.01936049)
(-0.003180852 -0.00317296 -0.01996286)
(-0.004390563 -0.004364831 -0.02216406)
(-0.001789601 -0.001737615 -0.02627554)
(0.004033797 0.004157687 -0.06026979)
(0.01415827 0.01433912 -0.08089448)
(0.02965356 0.0298857 -0.09630223)
(0.04869441 0.0489946 -0.1039956)
(0.07102684 0.07144522 -0.1034436)
(0.09553743 0.0961672 -0.09422999)
(0.1196049 0.1205744 -0.07624657)
(0.1389022 0.1403233 -0.05036441)
(0.1476679 0.1495427 -0.01917874)
(0.1387347 0.1408778 0.01451706)
(0.1130861 0.1151608 0.04105542)
(0.07918391 0.08095115 0.05693623)
(0.04576836 0.04720692 0.05988971)
(0.01922898 0.02108738 0.05167282)
(0.001579831 0.002556034 0.03051195)
(-0.004867177 -0.005196205 0.01879286)
(-0.006373821 -0.006338114 0.01717216)
(-0.00767179 -0.007660031 0.01573027)
(-0.00944691 -0.009451994 0.01510217)
(-0.01169132 -0.01170112 0.01412015)
(-0.01355281 -0.01356325 0.01246575)
(-0.005025425 -0.005035663 0.003034966)
(-0.004372273 -0.001391013 -0.03820289)
(-0.006294738 -0.002177094 -0.03807783)
(-0.006408774 -0.002323181 -0.0376444)
(-0.006023097 -0.002252082 -0.03724302)
(-0.00558696 -0.002211895 -0.03743231)
(-0.004797562 -0.002330902 -0.03902721)
(-0.002177933 -0.00145922 -0.04177323)
(0.003497363 0.006429362 -0.0525459)
(0.009178029 0.01714775 -0.07627027)
(0.0192094 0.02581623 -0.0921536)
(0.03548698 0.03691004 -0.1041287)
(0.05554341 0.05108102 -0.1094817)
(0.07881904 0.06816942 -0.107246)
(0.1040678 0.08730542 -0.09684367)
(0.1286494 0.1064381 -0.07808043)
(0.1483016 0.1220038 -0.05175239)
(0.1573299 0.1290541 -0.02041322)
(0.1484216 0.1218616 0.0133031)
(0.1220795 0.1012755 0.04053713)
(0.08676228 0.07428227 0.05800839)
(0.05124565 0.0479466 0.06373959)
(0.02202077 0.02654456 0.05980592)
(0.004124761 0.009648443 0.05043772)
(-0.005960452 -0.001130143 0.03274051)
(-0.0150562 -0.00457132 0.03040144)
(-0.02118787 -0.006808362 0.02745296)
(-0.02749769 -0.008723793 0.02540382)
(-0.03595715 -0.01025204 0.02248923)
(-0.04976058 -0.009894747 0.01940167)
(-0.06711838 0.002037078 -0.002534023)
(-0.006991658 -0.00112801 -0.04582229)
(-0.01042373 -0.001930243 -0.04589282)
(-0.01074217 -0.002178702 -0.04584802)
(-0.009910746 -0.002185702 -0.04602573)
(-0.008492047 -0.002248216 -0.04721263)
(-0.005622718 -0.002518636 -0.05003432)
(0.002564265 7.485113e-05 -0.05451048)
(0.006229939 0.01044295 -0.07965929)
(0.01153513 0.02060696 -0.09424619)
(0.02476601 0.02873921 -0.1063885)
(0.04262351 0.03830057 -0.1146112)
(0.06412207 0.05012899 -0.1169868)
(0.08863888 0.06423602 -0.1125637)
(0.1148001 0.08000774 -0.1006095)
(0.1399738 0.0958083 -0.08085147)
(0.1599943 0.1086613 -0.05397035)
(0.1692349 0.1143208 -0.02235038)
(0.1603493 0.1080249 0.0115661)
(0.133309 0.09040897 0.03963378)
(0.09651934 0.06739448 0.0586114)
(0.05879585 0.04480151 0.06656357)
(0.0269704 0.0258537 0.06476721)
(0.006448137 0.01062732 0.05754852)
(-0.008365751 0.0002489667 0.03770796)
(-0.02344314 -0.003600053 0.03484135)
(-0.03463056 -0.006060155 0.03074346)
(-0.04599401 -0.007987358 0.02723757)
(-0.06057575 -0.009339946 0.02236113)
(-0.08255105 -0.009116499 0.0181473)
(-0.1043104 -0.001832629 -0.01028102)
(-0.009005292 -0.0008109196 -0.04949669)
(-0.01383696 -0.001495387 -0.04954961)
(-0.01447496 -0.001783754 -0.04974862)
(-0.01327594 -0.001871042 -0.05052824)
(-0.01077008 -0.001944084 -0.05288601)
(-0.004586154 -0.001943898 -0.05681936)
(0.003901295 0.001617068 -0.07258801)
(0.008209776 0.01101514 -0.0937183)
(0.01628076 0.01996635 -0.1069205)
(0.03105329 0.02806585 -0.1178177)
(0.0502454 0.03691375 -0.1238794)
(0.07306585 0.04727065 -0.1241664)
(0.09866659 0.05929035 -0.1179635)
(0.1255777 0.07256593 -0.1046421)
(0.1512182 0.08581893 -0.08396912)
(0.1715455 0.09658054 -0.05656456)
(0.1809918 0.1011907 -0.02464795)
(0.1721887 0.09554759 0.009493689)
(0.1445831 0.08008242 0.03830106)
(0.1065556 0.06001429 0.05830054)
(0.06677419 0.04025936 0.06748429)
(0.03212092 0.02353148 0.06653841)
(0.00813612 0.0102696 0.05952591)
(-0.01105824 0.000840996 0.03861924)
(-0.03106598 -0.002858048 0.03513071)
(-0.04689102 -0.005187244 0.03014575)
(-0.06273111 -0.006913525 0.02562397)
(-0.08171713 -0.007979756 0.01969013)
(-0.1075479 -0.007679241 0.01583066)
(-0.1263179 -0.00223713 -0.01490937)
(-0.01041515 -0.0005391605 -0.05134602)
(-0.01637228 -0.001056816 -0.05129445)
(-0.01735095 -0.00132307 -0.0516004)
(-0.01586089 -0.001438072 -0.05273819)
(-0.01233951 -0.001439818 -0.05591237)
(-0.005441977 -0.001022936 -0.06078022)
(0.005860191 0.002512407 -0.07441486)
(0.01265676 0.01096789 -0.1009726)
(0.02118198 0.01890366 -0.1154824)
(0.03742814 0.02634983 -0.1260092)
(0.05795929 0.0342851 -0.1310629)
(0.08183913 0.04333991 -0.130052)
(0.1081945 0.05364494 -0.1226277)
(0.1355509 0.06489571 -0.1083223)
(0.1614317 0.0760769 -0.08698252)
(0.1819435 0.08513052 -0.05919411)
(0.1915673 0.08888061 -0.02702836)
(0.1829082 0.08375446 0.007309366)
(0.1549322 0.07006292 0.03668618)
(0.1160468 0.05253432 0.05724418)
(0.07464588 0.03538935 0.06696537)
(0.03745403 0.0209295 0.06622696)
(0.01007164 0.009568195 0.05898223)
(-0.01305325 0.001135923 0.03770257)
(-0.03722185 -0.00220281 0.03365294)
(-0.05701735 -0.004237663 0.02808391)
(-0.07642617 -0.005669188 0.02302943)
(-0.0983212 -0.006445658 0.01674589)
(-0.1259216 -0.006068501 0.01368855)
(-0.1416376 -0.00201261 -0.01796289)
(-0.01133619 -0.0003398532 -0.05230324)
(-0.01810363 -0.0007005628 -0.05214563)
(-0.0193593 -0.0009175628 -0.05248998)
(-0.01763409 -0.001043001 -0.05389673)
(-0.01324211 -0.001162041 -0.05765025)
(-0.004852102 -0.0009109327 -0.06309998)
(0.0075419 0.003578137 -0.07874245)
(0.01580478 0.01166546 -0.1063076)
(0.02595738 0.01798704 -0.12141)
(0.04366325 0.02420472 -0.1317683)
(0.06536713 0.03109757 -0.1361914)
(0.09009125 0.03891205 -0.1343828)
(0.1169432 0.04771313 -0.1261896)
(0.144501 0.05724455 -0.1112765)
(0.1704415 0.06668279 -0.08955808)
(0.1910415 0.07429908 -0.06158066)
(0.2008109 0.07732203 -0.02927038)
(0.1923085 0.07263845 0.005189433)
(0.1641065 0.0605359 0.03494474)
(0.1247229 0.04535558 0.05569937)
(0.08222239 0.03069309 0.06554611)
(0.04303553 0.01843144 0.06475808)
(0.01270419 0.008805984 0.05727455)
(-0.01383455 0.001324967 0.03611874)
(-0.04152 -0.001575203 0.03166038)
(-0.06461884 -0.00327182 0.02576491)
(-0.08680241 -0.004410262 0.02051219)
(-0.1106576 -0.004962071 0.01426048)
(-0.1391459 -0.004582633 0.01199532)
(-0.1523193 -0.001638384 -0.01994363)
(-0.01190394 -0.0002050065 -0.05281066)
(-0.01920494 -0.0004403102 -0.05258194)
(-0.02064837 -0.0006020621 -0.05296687)
(-0.0187237 -0.0007302098 -0.05468012)
(-0.01353678 -0.0009360827 -0.05912363)
(-0.002150254 -0.0009153269 -0.06481916)
(0.008306612 0.004801152 -0.09076452)
(0.01656306 0.01196254 -0.1118756)
(0.03025119 0.01678882 -0.1262475)
(0.04948296 0.02183342 -0.1359927)
(0.07221868 0.02766356 -0.1397172)
(0.09763159 0.03431621 -0.1373207)
(0.1248043 0.04177265 -0.1286394)
(0.1524037 0.04979889 -0.1134002)
(0.1782952 0.05772201 -0.0915464)
(0.1989328 0.06408613 -0.06356016)
(0.2088197 0.06647458 -0.03121113)
(0.2004302 0.06220356 0.003305448)
(0.1720823 0.05162733 0.0332674)
(0.1325101 0.03871641 0.0539567)
(0.08942018 0.02643426 0.06369668)
(0.04884248 0.01622133 0.06279458)
(0.01614496 0.008116473 0.05519808)
(-0.01327793 0.001473947 0.03447485)
(-0.04395125 -0.0009877491 0.02975918)
(-0.06979669 -0.002364821 0.02370523)
(-0.09417001 -0.003253566 0.01843212)
(-0.1194321 -0.003652621 0.01236234)
(-0.1484352 -0.003333969 0.01078417)
(-0.1597489 -0.001249488 -0.02126672)
(-0.0122321 -0.000117485 -0.05308361)
(-0.01984964 -0.000258037 -0.05281796)
(-0.02138903 -0.0003561499 -0.05325528)
(-0.01926605 -0.0004248284 -0.0552433)
(-0.01332265 -0.000476325 -0.0604081)
(0.000483511 -0.0001255545 -0.06631011)
(0.009163403 0.004760065 -0.09920415)
(0.01766913 0.01047782 -0.1160531)
(0.03419711 0.01468663 -0.1299552)
(0.05484295 0.01906595 -0.1388579)
(0.07848705 0.02405578 -0.1419391)
(0.1044162 0.02970697 -0.1390923)
(0.1317626 0.03597667 -0.130113)
(0.1593001 0.04266812 -0.1147461)
(0.1850926 0.04924075 -0.09293317)
(0.2057572 0.05447811 -0.06506785)
(0.215737 0.05629796 -0.03274823)
(0.2073756 0.0524485 0.001800194)
(0.1789168 0.04341507 0.03182778)
(0.1394111 0.03273824 0.05226944)
(0.09617693 0.02271843 0.06177702)
(0.05476297 0.01435891 0.06077155)
(0.02027785 0.007541988 0.05318953)
(-0.01153313 0.001590212 0.03305652)
(-0.04477242 -0.0004757086 0.02820012)
(-0.0729275 -0.001577949 0.02207067)
(-0.09907539 -0.00226886 0.01684559)
(-0.1254216 -0.00257102 0.01098578)
(-0.1547899 -0.002341272 0.009941973)
(-0.1648432 -0.0009057921 -0.02216288)
(-0.01240552 -6.407453e-05 -0.05322958)
(-0.02018134 -0.0001411069 -0.05294389)
(-0.02172678 -0.0001877912 -0.05340703)
(-0.01938915 -0.0001848629 -0.05551209)
(-0.01288504 -4.617496e-05 -0.06087999)
(0.001988448 0.0007632047 -0.06686685)
(0.01146228 0.00437585 -0.1006184)
(0.02089227 0.008539041 -0.1174333)
(0.03847081 0.01231068 -0.1314833)
(0.05993471 0.01619994 -0.1402039)
(0.08417181 0.02048326 -0.1430094)
(0.1104281 0.02523266 -0.1399253)
(0.1378297 0.03042512 -0.1308086)
(0.165246 0.03590403 -0.1154473)
(0.1909332 0.04123912 -0.09378343)
(0.2116405 0.04543036 -0.06611072)
(0.2216932 0.04673546 -0.03384621)
(0.2132699 0.04336309 0.0007398701)
(0.1847294 0.03594166 0.03071818)
(0.1454908 0.0274611 0.0507985)
(0.1024466 0.01954813 0.06002186)
(0.06062863 0.01282372 0.05894913)
(0.02485168 0.007089699 0.05146479)
(-0.008912319 0.001718544 0.03196996)
(-0.04437387 -5.868817e-05 0.02704703)
(-0.07448686 -0.0009438835 0.02086729)
(-0.1021015 -0.001482865 0.01569628)
(-0.1293278 -0.001723375 0.01001514)
(-0.1590083 -0.001583954 0.009370926)
(-0.1682404 -0.0006201665 -0.02274325)
(-0.012488 -3.584732e-05 -0.05331195)
(-0.02032636 -8.177971e-05 -0.05302261)
(-0.02182801 -0.0001141331 -0.05351139)
(-0.01927705 -0.000111924 -0.05568903)
(-0.01233039 4.743361e-05 -0.06111716)
(0.003361741 0.001004894 -0.06719984)
(0.01374051 0.004118121 -0.100998)
(0.0240598 0.007316583 -0.1179586)
(0.04239722 0.01040038 -0.1321395)
(0.06445967 0.01361489 -0.140791)
(0.0891227 0.01712092 -0.1434282)
(0.1155903 0.02097464 -0.1401872)
(0.1429872 0.02514539 -0.1309951)
(0.1702729 0.02949087 -0.1156884)
(0.1958785 0.03366126 -0.09421034)
(0.2166507 0.03685835 -0.06675254)
(0.2267646 0.0377103 -0.03455085)
(0.2182468 0.03492569 6.975118e-05)
(0.1897013 0.02920797 0.02991243)
(0.1508758 0.02284855 0.04959861)
(0.1082103 0.01684716 0.05856284)
(0.06625215 0.01154181 0.0574897)
(0.02955434 0.006732551 0.05018459)
(-0.005776752 0.001871645 0.03125464)
(-0.04318453 0.0002450058 0.02623033)
(-0.07494637 -0.0004751118 0.02003218)
(-0.1037773 -0.0008943118 0.0149005)
(-0.1317329 -0.001089579 0.009351002)
(-0.1616973 -0.001020331 0.00899112)
(-0.1704242 -0.0004021673 -0.02310893)
(-0.01252433 -2.461209e-05 -0.05336917)
(-0.02038038 -6.510842e-05 -0.05309615)
(-0.0218221 -0.0001215501 -0.05364257)
(-0.01906594 -0.0001984568 -0.05593558)
(-0.01175417 -0.0002001643 -0.06144524)
(0.00455893 0.0009818245 -0.06782799)
(0.01562992 0.003981024 -0.1016699)
(0.02661937 0.006450516 -0.11865)
(0.04557561 0.008769884 -0.1327467)
(0.06814442 0.01121531 -0.1411996)
(0.09316242 0.0139112 -0.1436202)
(0.1198014 0.01688019 -0.1402018)
(0.1471925 0.02007265 -0.130922)
(0.1743728 0.02334616 -0.1156555)
(0.1999191 0.0264088 -0.09434834)
(0.2207541 0.02866392 -0.06710507)
(0.2309402 0.02915497 -0.03499521)
(0.2224319 0.02710669 -0.0003922886)
(0.1940523 0.02315205 0.02928241)
(0.1557267 0.01877481 0.04864862)
(0.1134651 0.01446745 0.05746778)
(0.07145103 0.01040579 0.05648614)
(0.03406909 0.00644884 0.0494028)
(-0.002504739 0.001964663 0.0308887)
(-0.04162702 0.0003594888 0.02567018)
(-0.07473472 -0.0001823598 0.01949727)
(-0.1045511 -0.0004891844 0.01438158)
(-0.1331023 -0.0006413765 0.008915745)
(-0.1633191 -0.0006174634 0.008746673)
(-0.1717559 -0.0002442636 -0.02333005)
(-0.01254368 -2.001567e-05 -0.05342285)
(-0.02041127 -6.248864e-05 -0.05319205)
(-0.02181723 -0.0001474607 -0.05385624)
(-0.01887447 -0.0003427633 -0.05643105)
(-0.0112682 -0.0006676864 -0.06205861)
(0.005269942 0.0008989528 -0.0697272)
(0.01684602 0.003877914 -0.1031362)
(0.02836552 0.005551058 -0.1199506)
(0.04785935 0.00707407 -0.1336384)
(0.07087409 0.008774636 -0.141717)
(0.09620448 0.01070215 -0.1438233)
(0.1230005 0.0128358 -0.1401797)
(0.1504001 0.01510743 -0.1307779)
(0.1774954 0.01737626 -0.1155159)
(0.202968 0.019404 -0.09434533)
(0.2238264 0.0208002 -0.06731323)
(0.2341449 0.02104357 -0.03535805)
(0.2259227 0.01984566 -0.0008709655)
(0.1979722 0.01761741 0.02868611)
(0.160166 0.01501822 0.04791986)
(0.1181789 0.01220271 0.05680297)
(0.07603513 0.0093344 0.05606586)
(0.03800835 0.006324034 0.04912927)
(0.0003781893 0.002065196 0.03107083)
(-0.0400736 0.0001700657 0.02531879)
(-0.07422236 -9.132317e-05 0.0192562)
(-0.1047864 -0.0002456725 0.01408834)
(-0.1337986 -0.0003468363 0.008653254)
(-0.1642241 -0.0003445832 0.008599683)
(-0.1725092 -0.0001360708 -0.02345463)
(-0.01255442 -1.529726e-05 -0.05346896)
(-0.02043254 -5.065157e-05 -0.05328804)
(-0.0218189 -0.0001232513 -0.05411734)
(-0.01870025 -0.0002727244 -0.05713469)
(-0.01033042 -0.0004715248 -0.06293235)
(0.005279578 0.0006279762 -0.07555097)
(0.01676275 0.002807029 -0.1053824)
(0.0293901 0.004059286 -0.1215391)
(0.04940569 0.005072056 -0.1346056)
(0.07275011 0.006167981 -0.1422293)
(0.09829484 0.007413399 -0.1440294)
(0.1251979 0.008781807 -0.1401761)
(0.1525945 0.01020157 -0.1306595)
(0.1796005 0.01154248 -0.115391)
(0.2049618 0.01262529 -0.09433392)
(0.2257916 0.01326298 -0.06751491)
(0.2363183 0.01334932 -0.03578303)
(0.2287354 0.01302177 -0.001509817)
(0.2015186 0.01237472 0.02805412)
(0.1642006 0.01129858 0.04742273)
(0.1222409 0.009774607 0.0567046)
(0.07962273 0.007946981 0.05655088)
(0.03985609 0.005746074 0.05036806)
(0.001802148 0.002072074 0.03642492)
(-0.03810542 1.470601e-05 0.02548016)
(-0.07362719 -7.686794e-05 0.01938641)
(-0.1047546 -0.0001246725 0.01401288)
(-0.134094 -0.0001697699 0.008523727)
(-0.1646743 -0.0001716987 0.008523575)
(-0.1728904 -6.697384e-05 -0.02351625)
(-0.01256194 -1.011534e-05 -0.05350083)
(-0.02044708 -3.39191e-05 -0.05334821)
(-0.02181688 -8.089299e-05 -0.05422666)
(-0.01859841 -0.0001445157 -0.05731023)
(-0.01045799 -0.0001421978 -0.06319563)
(0.005840312 0.0003211587 -0.0738816)
(0.01774062 0.001462037 -0.1058151)
(0.03007855 0.002299938 -0.1222105)
(0.05027604 0.002883112 -0.1351758)
(0.0738207 0.003446225 -0.1425953)
(0.09949847 0.004076191 -0.1441908)
(0.1264516 0.004746489 -0.1401934)
(0.153814 0.005386554 -0.1306006)
(0.180705 0.005878312 -0.1153403)
(0.2058994 0.006100652 -0.09439257)
(0.2266313 0.006060247 -0.06779981)
(0.2374153 0.006030824 -0.03636642)
(0.2308099 0.006494993 -0.002411695)
(0.2046378 0.007196464 0.02730716)
(0.1677703 0.007327247 0.04708538)
(0.125519 0.006789281 0.05697196)
(0.08208828 0.005763517 0.05747477)
(0.04177969 0.004239459 0.05138608)
(0.002875461 0.001468408 0.03609731)
(-0.03767031 4.044795e-05 0.02587087)
(-0.07313275 -3.031205e-05 0.01966509)
(-0.1046359 -4.403483e-05 0.01403577)
(-0.1341815 -6.189657e-05 0.008488872)
(-0.1648584 -6.589187e-05 0.008496141)
(-0.1730504 -2.503805e-05 -0.02353929)
(-0.01256819 -3.860254e-06 -0.05351871)
(-0.02046453 -1.534728e-05 -0.05338529)
(-0.02183805 -4.530082e-05 -0.05431437)
(-0.01856651 -0.0001491524 -0.05751506)
(-0.01033548 -0.0004147655 -0.06344165)
(0.005870843 0.0002152571 -0.07464593)
(0.01781642 0.0008508861 -0.1064445)
(0.03027451 0.0006761548 -0.1227324)
(0.05059374 0.0006197247 -0.1355046)
(0.07421624 0.0006666642 -0.1427629)
(0.09992232 0.0007391565 -0.1442465)
(0.1268604 0.0007792059 -0.1401815)
(0.1541579 0.0007085646 -0.1305613)
(0.1809064 0.000419898 -0.1153278)
(0.2058614 -0.0001576699 -0.09449403)
(0.2263865 -0.0008388464 -0.06817435)
(0.2374136 -0.001004871 -0.03718255)
(0.2320487 0.0001032813 -0.003731774)
(0.2072282 0.001933387 0.02622717)
(0.1708989 0.003036334 0.04656947)
(0.1283739 0.003263427 0.05713047)
(0.08419101 0.002873744 0.05813775)
(0.04234562 0.002076532 0.05264272)
(0.003200563 0.0008064637 0.0399726)
(-0.03648674 9.841955e-05 0.0261862)
(-0.07276405 2.688973e-05 0.01983348)
(-0.1044913 1.59911e-05 0.01408561)
(-0.1341527 6.204644e-06 0.008482966)
(-0.1648875 -5.465391e-07 0.008489313)
(-0.1730813 -1.823678e-07 -0.02354316)
(-0.01257205 4.09787e-06 -0.0535187)
(-0.02048106 1.306789e-05 -0.0533917)
(-0.02188433 3.022111e-05 -0.05437161)
(-0.01867475 -2.399277e-05 -0.057756)
(-0.009993773 -0.0002819464 -0.06341002)
(0.005481351 0.0002409513 -0.07812816)
(0.01717898 -0.0002006866 -0.1069538)
(0.03022513 -0.001209703 -0.1230352)
(0.05048484 -0.001745801 -0.1354822)
(0.07401929 -0.002101437 -0.1426503)
(0.09964545 -0.002525463 -0.1441404)
(0.1265187 -0.003065953 -0.1400901)
(0.1537428 -0.003787133 -0.1304832)
(0.1803446 -0.004774715 -0.1152762)
(0.2050037 -0.006046374 -0.09453345)
(0.2252011 -0.007281621 -0.06849133)
(0.2363732 -0.007641397 -0.03803068)
(0.2322947 -0.006204564 -0.005255121)
(0.2090284 -0.003554124 0.02487995)
(0.1733362 -0.001551815 0.04586139)
(0.130541 -0.0005158493 0.05706303)
(0.08573014 -0.0001560145 0.05835459)
(0.04402216 -7.526843e-05 0.05248916)
(0.004146548 -5.837365e-05 0.03714594)
(-0.03684699 -2.799835e-05 0.02623727)
(-0.07262504 1.908705e-05 0.01989216)
(-0.104388 4.440297e-05 0.01410868)
(-0.1340787 5.376994e-05 0.008500523)
(-0.16483 4.876364e-05 0.008496094)
(-0.1730419 1.806516e-05 -0.02353687)
(-0.01257123 1.125873e-05 -0.05349455)
(-0.02048033 4.022354e-05 -0.05333788)
(-0.02191113 0.0001083344 -0.05428691)
(-0.01885661 0.0002088925 -0.05756006)
(-0.00914244 0.0002956416 -0.06286584)
(0.004933909 -0.0001629677 -0.08331591)
(0.01571325 -0.001982407 -0.1067401)
(0.02997599 -0.003180294 -0.1222612)
(0.04996003 -0.003954839 -0.1348866)
(0.073211 -0.004708226 -0.1422087)
(0.0986888 -0.0056317 -0.1438702)
(0.1254794 -0.006744887 -0.1399198)
(0.1526492 -0.008092189 -0.1303556)
(0.1791421 -0.009728478 -0.1151555)
(0.2035257 -0.0116116 -0.09443839)
(0.223356 -0.01332698 -0.06857062)
(0.2345396 -0.01392622 -0.03854409)
(0.2314826 -0.01240907 -0.006409415)
(0.209653 -0.009195794 0.02372958)
(0.1746309 -0.006349639 0.04522997)
(0.1316862 -0.004433471 0.05704177)
(0.0862968 -0.003235409 0.05869316)
(0.04337374 -0.002267288 0.05332164)
(0.003577457 -0.0009711915 0.04051457)
(-0.03635381 -0.0001142208 0.02644055)
(-0.07264689 2.58186e-05 0.01999809)
(-0.104334 8.746161e-05 0.01418526)
(-0.1339599 0.0001172703 0.008545436)
(-0.1646851 0.0001127343 0.008518032)
(-0.1729298 4.266372e-05 -0.02351954)
(-0.012568 1.576639e-05 -0.05345508)
(-0.0204742 5.573588e-05 -0.05325148)
(-0.0219222 0.0001496699 -0.05407209)
(-0.01900968 0.0004323417 -0.05705069)
(-0.009609319 0.0009623531 -0.06223118)
(0.004692192 -0.001268807 -0.08102329)
(0.01536959 -0.003944727 -0.1050986)
(0.02916234 -0.004890996 -0.1209053)
(0.04876978 -0.005851865 -0.1339425)
(0.07174676 -0.007101507 -0.1416165)
(0.09704011 -0.008581335 -0.1435228)
(0.123739 -0.01030481 -0.1397155)
(0.1508878 -0.01230195 -0.1302028)
(0.1773478 -0.01458949 -0.1149739)
(0.2015631 -0.01705811 -0.09419394)
(0.221101 -0.01922179 -0.06834572)
(0.2322011 -0.02008824 -0.03855493)
(0.2297652 -0.01862456 -0.006873349)
(0.2090256 -0.01499805 0.02312305)
(0.1745803 -0.01128616 0.04492021)
(0.1315638 -0.008384148 0.05703205)
(0.08585144 -0.006343494 0.0587001)
(0.04352372 -0.004620402 0.05295101)
(0.003353168 -0.001751049 0.03717007)
(-0.03740116 2.949376e-05 0.02653124)
(-0.0728353 0.0001367819 0.01999754)
(-0.1042673 0.0001875884 0.01425109)
(-0.1337367 0.0002306718 0.008628298)
(-0.1643903 0.0002192332 0.008562715)
(-0.1726915 8.465444e-05 -0.02348243)
(-0.01256148 1.738902e-05 -0.05340535)
(-0.02046172 5.503584e-05 -0.05314219)
(-0.02191872 0.0001318322 -0.05373097)
(-0.0191433 0.0003633732 -0.05613173)
(-0.01165488 0.0008098564 -0.0613595)
(0.00505547 -0.001298768 -0.06839074)
(0.01657478 -0.004432132 -0.1018103)
(0.02782728 -0.005864115 -0.1189234)
(0.04688226 -0.007424551 -0.1327576)
(0.06956455 -0.009290761 -0.1409778)
(0.09464323 -0.01140662 -0.1431694)
(0.1212518 -0.01380531 -0.1395229)
(0.1484224 -0.01651015 -0.1300544)
(0.1749392 -0.01950035 -0.1147545)
(0.1991192 -0.02259547 -0.09382012)
(0.2184823 -0.02523631 -0.06783098)
(0.229455 -0.02638874 -0.03805913)
(0.2272651 -0.02498249 -0.006590249)
(0.2071878 -0.0209337 0.02318993)
(0.1731486 -0.01625558 0.04504901)
(0.1301797 -0.01218564 0.05714238)
(0.08447568 -0.009049875 0.05847114)
(0.04276022 -0.006264238 0.05233391)
(0.002733763 -0.00200478 0.03464398)
(-0.03836553 6.192218e-05 0.02650196)
(-0.07310544 0.0002498374 0.01991134)
(-0.1040851 0.0003547024 0.01435754)
(-0.13329 0.0004172751 0.008767257)
(-0.1638268 0.0003915166 0.008643465)
(-0.1722293 0.0001530011 -0.02340994)
(-0.01255067 2.035076e-05 -0.05335936)
(-0.02045428 5.072949e-05 -0.05306316)
(-0.02196119 8.396701e-05 -0.05355769)
(-0.01932224 0.0001182922 -0.0557506)
(-0.01215481 6.670394e-05 -0.06113942)
(0.003992401 -0.001085197 -0.06721021)
(0.01489874 -0.003930978 -0.1009641)
(0.02561639 -0.006364765 -0.1179281)
(0.0442816 -0.008802609 -0.1320286)
(0.06660042 -0.01138208 -0.1405007)
(0.09143445 -0.01420815 -0.142891)
(0.1179569 -0.01735158 -0.1393664)
(0.1451922 -0.02083918 -0.1299108)
(0.1718525 -0.02461479 -0.1144923)
(0.1961243 -0.02842104 -0.09332012)
(0.2154311 -0.0316067 -0.0670514)
(0.2262635 -0.03306125 -0.03710921)
(0.2240132 -0.03163713 -0.005617103)
(0.2041666 -0.02703234 0.02396363)
(0.1702775 -0.02118907 0.0457536)
(0.1273632 -0.01565677 0.05763025)
(0.08190537 -0.01110085 0.05846139)
(0.04091359 -0.00705599 0.05181463)
(0.001454334 -0.002044145 0.03272058)
(-0.03942044 -8.978979e-05 0.02648059)
(-0.07335178 0.0003487587 0.01996146)
(-0.1036453 0.0005833552 0.01459668)
(-0.1324562 0.0006973857 0.009014636)
(-0.1628238 0.0006525438 0.00878705)
(-0.171406 0.0002563692 -0.02327779)
(-0.0125196 3.349504e-05 -0.05330793)
(-0.02041404 7.375094e-05 -0.05300105)
(-0.02198583 9.453899e-05 -0.05345588)
(-0.0195376 7.027769e-05 -0.05557563)
(-0.01273919 -0.0001145349 -0.06095429)
(0.002659842 -0.001000059 -0.06690041)
(0.01279139 -0.003979635 -0.1006013)
(0.02286501 -0.007176261 -0.1174528)
(0.04096822 -0.01032837 -0.1315419)
(0.06284231 -0.01359453 -0.1400998)
(0.08738942 -0.0171445 -0.142609)
(0.1138154 -0.02107775 -0.1391674)
(0.1411415 -0.02542134 -0.1296986)
(0.1680115 -0.03007971 -0.1141275)
(0.1924761 -0.03470623 -0.09265844)
(0.2118236 -0.03852674 -0.06600965)
(0.2225148 -0.04030309 -0.03575369)
(0.2199627 -0.0387555 -0.004034677)
(0.199955 -0.03341215 0.02542404)
(0.1659083 -0.02619389 0.04714486)
(0.1229108 -0.01896574 0.0588134)
(0.07768039 -0.01279646 0.05932887)
(0.03738708 -0.007503593 0.05237229)
(-0.001060948 -0.002084507 0.03277773)
(-0.04063924 -0.0001833172 0.02694656)
(-0.07338827 0.0005365843 0.02043964)
(-0.1027522 0.0009335596 0.01509623)
(-0.1310059 0.001113908 0.009445393)
(-0.1611435 0.001034999 0.009031104)
(-0.1700328 0.0004064166 -0.02305116)
(-0.01243821 6.404391e-05 -0.05322794)
(-0.02027202 0.0001408012 -0.05292713)
(-0.02188951 0.0001865509 -0.05336179)
(-0.01965474 0.0001824709 -0.05542115)
(-0.01331338 4.371038e-05 -0.06073722)
(0.001276415 -0.0007298044 -0.06660125)
(0.01053393 -0.004196166 -0.1002322)
(0.01976817 -0.008350739 -0.1169359)
(0.03712834 -0.01219985 -0.1308641)
(0.05842532 -0.01608601 -0.1394364)
(0.08258464 -0.02033862 -0.1420553)
(0.1088495 -0.02509004 -0.1387102)
(0.1362448 -0.03036129 -0.1292461)
(0.1633475 -0.03600967 -0.1135313)
(0.1880644 -0.0415809 -0.09175362)
(0.2075168 -0.0461403 -0.06468031)
(0.2180647 -0.04826626 -0.03403025)
(0.2150253 -0.04648798 -0.001945847)
(0.1945493 -0.04022308 0.02745233)
(0.160108 -0.0314528 0.0491119)
(0.1169806 -0.0223987 0.06057279)
(0.07212642 -0.01456607 0.06082186)
(0.03284995 -0.008081183 0.05359564)
(-0.004095867 -0.002100956 0.033418)
(-0.04172934 -9.617459e-06 0.02780022)
(-0.07288637 0.0009270532 0.02126883)
(-0.1010519 0.001473773 0.01589037)
(-0.1285852 0.001715616 0.0101108)
(-0.1584435 0.001576893 0.009412925)
(-0.1678422 0.0006161139 -0.02268295)
(-0.01226172 0.0001193421 -0.05308128)
(-0.01993201 0.0002638511 -0.05280083)
(-0.02153803 0.0003684112 -0.05321006)
(-0.0195193 0.0004475886 -0.05515245)
(-0.01376337 0.0004861334 -0.06025912)
(-0.000209493 2.723318e-05 -0.06593392)
(0.008448892 -0.004401809 -0.09876556)
(0.01685954 -0.01002263 -0.1153524)
(0.03318202 -0.01449524 -0.129189)
(0.0536182 -0.01889519 -0.1379142)
(0.07717269 -0.02380778 -0.1407974)
(0.1031233 -0.02940999 -0.1376687)
(0.1304975 -0.03569586 -0.1283049)
(0.1577986 -0.0424607 -0.1125235)
(0.1827775 -0.04911925 -0.09049173)
(0.2023614 -0.05453578 -0.06301895)
(0.2127563 -0.05705005 -0.03196644)
(0.2090932 -0.05494038 0.0005440142)
(0.1879441 -0.04757841 0.02989777)
(0.1529886 -0.03708802 0.0514844)
(0.1098176 -0.02608069 0.06271896)
(0.06564649 -0.0164943 0.062709)
(0.02786336 -0.008726301 0.05520437)
(-0.00703253 -0.002031818 0.03437786)
(-0.0422722 0.0003360136 0.02900574)
(-0.0714289 0.001508634 0.02247524)
(-0.09809441 0.002222097 0.01704106)
(-0.1247267 0.002536106 0.01108394)
(-0.1542608 0.00231521 0.009986779)
(-0.1644724 0.0008945079 -0.02210365)
(-0.01192732 0.0002076925 -0.05280566)
(-0.01926989 0.0004486746 -0.05256191)
(-0.02076769 0.0006198348 -0.05291729)
(-0.01894405 0.0007668359 -0.05460604)
(-0.01398081 0.0009532223 -0.05908547)
(-0.002293139 0.0008438985 -0.06427274)
(0.007462417 -0.004366865 -0.09304843)
(0.01546143 -0.01141448 -0.111264)
(0.0296819 -0.01651131 -0.1254323)
(0.04866652 -0.02158288 -0.1348685)
(0.07125209 -0.02731474 -0.1383639)
(0.09666697 -0.03390933 -0.135693)
(0.1238781 -0.04136195 -0.1266121)
(0.1512942 -0.04941307 -0.1109175)
(0.176498 -0.05733207 -0.08875972)
(0.1962043 -0.06374524 -0.06098557)
(0.2064286 -0.06670195 -0.02959438)
(0.2020522 -0.06417054 0.003323452)
(0.1801314 -0.05554691 0.03259241)
(0.1446726 -0.04317591 0.05405883)
(0.1016815 -0.0300867 0.06503945)
(0.05862578 -0.01862203 0.06480687)
(0.02291316 -0.009426655 0.05713082)
(-0.009330611 -0.001885216 0.03569973)
(-0.04177507 0.0008151755 0.03055167)
(-0.0685096 0.002262391 0.02409828)
(-0.09333046 0.003181079 0.01862519)
(-0.118836 0.003598535 0.01246154)
(-0.1479802 0.003294997 0.0108312)
(-0.1594334 0.001232495 -0.02121213)
(-0.01135243 0.0003421837 -0.05229592)
(-0.01814852 0.0007073946 -0.05212315)
(-0.01944036 0.0009306361 -0.05243374)
(-0.01779639 0.001067932 -0.05382874)
(-0.01361196 0.001243844 -0.05756306)
(-0.00404989 0.00117555 -0.06244466)
(0.006598572 -0.00406743 -0.08508215)
(0.01401486 -0.01177759 -0.1062129)
(0.02568364 -0.01769422 -0.120419)
(0.04316845 -0.02377546 -0.1305196)
(0.06468801 -0.03062337 -0.1346919)
(0.08942687 -0.03842249 -0.1326088)
(0.1163369 -0.04724118 -0.1239955)
(0.1437551 -0.05678906 -0.1085873)
(0.1691069 -0.06617732 -0.08649146)
(0.1888936 -0.07375488 -0.05857664)
(0.1989232 -0.07722783 -0.02697115)
(0.1937931 -0.07419331 0.006263564)
(0.1711085 -0.06414809 0.03534743)
(0.135289 -0.04973896 0.0565888)
(0.09282995 -0.03444467 0.06725132)
(0.05142262 -0.02097646 0.06683484)
(0.01840658 -0.01020575 0.05914438)
(-0.01059495 -0.001742389 0.03724861)
(-0.03977955 0.001379797 0.03239133)
(-0.06361097 0.00315046 0.02613353)
(-0.0861496 0.004324008 0.02069857)
(-0.1101928 0.004898032 0.01435898)
(-0.1387897 0.004537136 0.01204262)
(-0.1520783 0.001619158 -0.01989898)
(-0.01042513 0.0005409655 -0.0513383)
(-0.0164004 0.001061794 -0.05127427)
(-0.01740206 0.001330885 -0.05155255)
(-0.0159534 0.001447887 -0.05263765)
(-0.01251991 0.001575945 -0.05571772)
(-0.005724856 0.001554753 -0.060407)
(0.005516474 -0.002888016 -0.0737153)
(0.01239657 -0.01143455 -0.1001127)
(0.02084709 -0.01860474 -0.1143907)
(0.03697346 -0.02579124 -0.1247353)
(0.05747486 -0.03374789 -0.1295667)
(0.081425 -0.04283612 -0.1282223)
(0.1078707 -0.05319171 -0.1203307)
(0.1351312 -0.06446931 -0.1054814)
(0.1605051 -0.07557765 -0.08369713)
(0.1802955 -0.08452726 -0.05585093)
(0.190101 -0.08861518 -0.02419425)
(0.1842301 -0.08499647 0.009215231)
(0.1608922 -0.07334968 0.03795929)
(0.1249747 -0.05672052 0.0587872)
(0.08349814 -0.03909179 0.06897619)
(0.04431866 -0.02350838 0.06834611)
(0.01460505 -0.01101275 0.06076815)
(-0.01057935 -0.00158112 0.03873123)
(-0.03595712 0.001994503 0.03431916)
(-0.05631236 0.004111194 0.02842534)
(-0.0759747 0.005581299 0.02320646)
(-0.09799807 0.00638134 0.01684112)
(-0.1256736 0.006023203 0.01373386)
(-0.1414744 0.00199498 -0.01792661)
(-0.009009682 0.000812362 -0.04948885)
(-0.01384972 0.001499283 -0.04953167)
(-0.01449796 0.001789236 -0.04970727)
(-0.01330568 0.001875969 -0.05038003)
(-0.01079694 0.001953472 -0.05252421)
(-0.006055122 0.002023507 -0.056597)
(0.004242766 -0.001452336 -0.06428945)
(0.009587482 -0.01072698 -0.09195052)
(0.01592052 -0.01946645 -0.1056795)
(0.03063753 -0.02753895 -0.1165366)
(0.04992086 -0.03641791 -0.1224252)
(0.07286053 -0.04683705 -0.1223241)
(0.09858762 -0.05893932 -0.1156062)
(0.1254494 -0.07225794 -0.1016919)