/*--------------------------------*- C++ -*----------------------------------*\
| =========                 |                                                 |
| \\      /  F ield         | OpenFOAM: The Open Source CFD Toolbox           |
|  \\    /   O peration     | Version:  2506                                  |
|   \\  /    A nd           | Website:  www.openfoam.com                      |
|    \\/     M anipulation  |                                                 |
\*---------------------------------------------------------------------------*/
FoamFile
{
    version     2.0;
    format      ascii;
    arch        "LSB;label=32;scalar=64";
    class       volScalarField;
    location    "3000/solid";
    object      T;
}
// * * * * * * * * * * * * * * * * * * * * * * * * * * * * * * * * * * * * * //

dimensions      [0 0 0 1 0 0 0];

internalField   nonuniform List<scalar> 
2304
(
306.5608
306.6324
306.6638
306.67
306.6589
306.6162
306.6368
306.7122
306.7439
306.7501
306.739
306.6957
306.6685
306.7442
306.7763
306.7826
306.7715
306.7278
306.6747
306.7504
306.7826
306.7889
306.7777
306.734
306.6637
306.7394
306.7715
306.7777
306.7666
306.7229
306.6213
306.6963
306.7279
306.734
306.7229
306.6799
306.6212
306.6838
306.6878
306.7638
306.6985
306.725
306.7788
306.8053
306.7297
306.7359
306.81
306.8161
306.7359
306.7295
306.8161
306.8099
306.7248
306.6978
306.8052
306.7783
306.6825
306.6147
306.7628
306.6813
306.7029
306.7792
306.7296
306.8059
306.7943
306.8209
306.8211
306.8479
306.8255
306.8316
306.8526
306.8588
306.8316
306.8254
306.8588
306.8526
306.8208
306.7938
306.8479
306.8208
306.7782
306.6965
306.8051
306.7235
306.7343
306.8106
306.7406
306.8167
306.8258
306.8526
306.8319
306.8588
306.8573
306.8635
306.8635
306.8697
306.8635
306.8573
306.8697
306.8635
306.8526
306.8254
306.8588
306.8316
306.8098
306.7283
306.816
306.7345
306.7406
306.8167
306.7343
306.8105
306.8319
306.8588
306.8257
306.8526
306.8635
306.8697
306.8573
306.8635
306.8697
306.8635
306.8634
306.8572
306.8587
306.8316
306.8525
306.8254
306.816
306.7345
306.8098
306.7282
306.7296
306.8059
306.7028
306.7791
306.8211
306.8479
306.7942
306.8208
306.8526
306.8587
306.8254
306.8315
306.8587
306.8525
306.8315
306.8253
306.8478
306.8207
306.8206
306.7937
306.8051
306.7234
306.7781
306.6964
306.6876
306.7637
306.621
306.6835
306.7787
306.8052
306.6983
306.7248
306.8099
306.816
306.7295
306.7357
306.8159
306.8097
306.7356
306.7293
306.805
306.7782
306.7245
306.6976
306.7627
306.6812
306.6823
306.6145
306.6175
306.6215
306.6812
306.6591
306.6964
306.7232
306.6701
306.728
306.7342
306.6637
306.7341
306.7279
306.6317
306.7231
306.6958
306.5539
306.68
306.6145
306.6968
306.6637
306.7239
306.7391
306.7394
306.7667
306.7501
306.7715
306.7778
306.7438
306.7778
306.7714
306.7116
306.7666
306.739
306.6299
306.723
306.657
306.7286
306.6747
306.7348
306.7715
306.7504
306.7778
306.7826
306.7826
306.7889
306.7763
306.7889
306.7826
306.7438
306.7777
306.75
306.6618
306.734
306.6682
306.7348
306.6684
306.7286
306.7778
306.7441
306.7715
306.7889
306.7763
306.7826
306.7826
306.7826
306.7762
306.75
306.7714
306.7438
306.6682
306.7277
306.6618
306.7238
306.6367
306.6967
306.7667
306.7121
306.739
306.7777
306.7438
306.75
306.7714
306.75
306.7437
306.7389
306.7389
306.7115
306.657
306.6956
306.6298
306.681
306.5606
306.6172
306.7231
306.6322
306.6588
306.734
306.6636
306.6698
306.7277
306.6698
306.6634
306.6957
306.6586
306.6314
306.6143
306.6159
306.5537
306.7082
306.6529
306.6772
306.6786
306.7798
306.7352
306.7466
306.7684
306.8029
306.7666
306.7698
306.7996
306.8048
306.7727
306.7717
306.8058
306.7882
306.7616
306.755
306.7947
306.7318
306.7191
306.699
306.7523
306.7818
306.7385
306.7702
306.7501
306.8558
306.8325
306.8441
306.8442
306.8788
306.8638
306.867
306.8756
306.8807
306.8699
306.8689
306.8816
306.8643
306.859
306.8526
306.8708
306.807
306.8164
306.7953
306.8281
306.8049
306.7701
306.8017
306.7733
306.8788
306.8641
306.8757
306.8672
306.9019
306.8955
306.8987
306.8987
306.9038
306.9016
306.9006
306.9048
306.8875
306.8907
306.8843
306.8939
306.8302
306.848
306.827
306.8512
306.8069
306.7763
306.8079
306.7754
306.8808
306.8702
306.8818
306.8692
306.9038
306.9016
306.9048
306.9006
306.9058
306.9077
306.9067
306.9068
306.8894
306.8969
306.8904
306.8959
306.8322
306.8542
306.8332
306.8532
306.7905
306.7653
306.797
306.7588
306.8645
306.8594
306.871
306.8529
306.8875
306.8908
306.894
306.8843
306.8894
306.8969
306.8959
306.8904
306.8731
306.886
306.8796
306.8795
306.8157
306.8433
306.8223
306.8368
306.7344
306.723
306.7547
306.7031
306.8073
306.8168
306.8283
306.7958
306.8303
306.8481
306.8512
306.8271
306.8322
306.8541
306.8531
306.8332
306.8157
306.8432
306.8367
306.8222
306.7589
306.8006
306.7796
306.7797
306.5766
306.5786
306.5956
306.6439
306.6519
306.6633
306.6671
306.6832
306.6864
306.669
306.6894
306.6884
306.6523
306.6783
306.6717
306.5962
306.6356
306.6155
306.6543
306.6484
306.6659
306.7238
306.724
306.7357
306.7471
306.7559
306.7591
306.7491
306.7621
306.7611
306.7324
306.751
306.7444
306.6751
306.7075
306.6869
306.6859
306.6717
306.6891
306.756
306.7474
306.7592
306.7796
306.7796
306.7829
306.7816
306.7859
306.7849
306.7648
306.7747
306.7681
306.707
306.731
306.7103
306.6921
306.6738
306.6911
306.7622
306.7494
306.7612
306.7859
306.7816
306.7849
306.7879
306.7879
306.787
306.7711
306.7768
306.7701
306.7133
306.733
306.7123
306.6811
306.6571
306.6746
306.7511
306.7328
306.7446
306.7747
306.7648
306.7681
306.7767
306.771
306.7701
306.76
306.7599
306.7533
306.7022
306.7163
306.6956
306.6388
306.6017
306.619
306.7078
306.6759
306.6874
306.7311
306.7074
306.7106
306.733
306.7135
306.7125
306.7164
306.7024
306.6959
306.6594
306.6596
306.6393
306.7337
306.7202
306.7009
306.7533
306.7346
306.7232
306.7033
306.7549
306.7608
306.8016
306.7808
306.7814
306.7098
306.6534
306.6427
306.6448
306.6763
306.6782
306.6736
306.7349
306.7178
306.665
306.7171
306.6989
306.7541
306.6981
306.736
306.7214
306.6684
306.719
306.702
306.7558
306.6993
306.7618
306.8017
306.7437
306.7444
306.7813
306.7819
306.7244
306.7885
306.7618
306.7554
306.795
306.8075
306.8169
306.796
306.8284
306.8162
306.8435
306.8226
306.8371
306.7803
306.7326
306.7099
306.7319
306.744
306.7689
306.7432
306.7889
306.7591
306.7186
306.7582
306.7526
306.7953
306.7518
306.8076
306.8167
306.7586
306.7903
306.7963
306.8282
306.7699
306.8162
306.8432
306.785
306.7989
306.8226
306.8368
306.7785
306.8049
306.7728
306.7718
306.8058
306.8304
306.8482
306.8272
306.8514
306.8324
306.8543
306.8334
306.8533
306.8031
306.7638
306.733
306.7629
306.767
306.7999
306.7661
306.8051
306.77
306.735
306.769
306.769
306.806
306.7681
306.8304
306.8478
306.7896
306.8132
306.8272
306.851
306.7928
306.8324
306.8539
306.7957
306.8151
306.8333
306.8529
306.7948
306.8027
306.7664
306.7697
306.7995
306.8323
306.8543
306.8333
306.8533
306.8303
306.848
306.8271
306.8512
306.805
306.7699
306.7349
306.769
306.7689
306.806
306.768
306.803
306.7636
306.7328
306.7627
306.7669
306.7998
306.766
306.8323
306.8538
306.7957
306.8151
306.8333
306.8529
306.7947
306.8303
306.8477
306.7894
306.8131
306.8271
306.8509
306.7927
306.7794
306.7345
306.7462
306.7678
306.8159
306.8434
306.8224
306.8369
306.8071
306.8164
306.7954
306.8281
306.7886
306.7589
306.7183
306.758
306.7523
306.7951
306.7515
306.7799
306.7319
306.7095
306.7312
306.7435
306.7683
306.7428
306.816
306.843
306.7848
306.7987
306.8224
306.8366
306.7783
306.8073
306.8162
306.758
306.79
306.7957
306.8279
306.7696
306.7051
306.6479
306.6739
306.6737
306.7591
306.8007
306.7798
306.7798
306.7317
306.7186
306.6986
306.7521
306.7329
306.7166
306.6628
306.7159
306.6969
306.753
306.6959
306.7063
306.6476
306.6387
306.6381
306.6727
306.6723
306.6697
306.7599
306.8008
306.7426
306.7424
306.7803
306.7802
306.7223
306.7327
306.7159
306.6618
306.7154
306.6962
306.7526
306.6955
306.8085
306.8172
306.7969
306.8289
306.7905
306.7654
306.7589
306.797
306.8172
306.8441
306.8376
306.8237
306.7825
306.7366
306.7341
306.7144
306.771
306.7481
306.7456
306.8087
306.8171
306.7596
306.7908
306.7972
306.8286
306.7711
306.7912
306.7633
306.7232
306.7608
306.7568
306.7976
306.7543
306.8174
306.8437
306.7995
306.7862
306.8373
306.8238
306.7798
306.8645
306.8592
306.8528
306.8709
306.8646
306.8594
306.853
306.871
306.8733
306.8862
306.8797
306.8797
306.8553
306.8322
306.8058
306.8059
306.8436
306.8438
306.8175
306.8639
306.8587
306.8144
306.8326
306.8523
306.8704
306.8262
306.864
306.8589
306.8147
306.8327
306.8525
306.8704
306.8262
306.8727
306.8855
306.8414
306.8414
306.8791
306.8791
306.835
306.8807
306.8699
306.869
306.8817
306.8875
306.8908
306.8843
306.894
306.8895
306.8969
306.8904
306.896
306.8782
306.8633
306.8287
306.8373
306.8665
306.875
306.8405
306.8801
306.8694
306.8307
306.8434
306.8684
306.8811
306.8425
306.8869
306.8902
306.8461
306.8558
306.8837
306.8934
306.8493
306.8889
306.8963
306.8522
306.8578
306.8898
306.8953
306.8513
306.8787
306.8637
306.8669
306.8755
306.8894
306.8969
306.8904
306.8959
306.8874
306.8907
306.8842
306.8939
306.8801
306.8693
306.8306
306.8434
306.8684
306.881
306.8424
306.8781
306.8632
306.8286
306.8372
306.8664
306.8749
306.8404
306.8888
306.8963
306.8522
306.8578
306.8898
306.8953
306.8513
306.8868
306.8901
306.846
306.8558
306.8836
306.8933
306.8493
306.8556
306.8321
306.8438
306.8438
306.8731
306.8861
306.8796
306.8796
306.8644
306.8591
306.8526
306.8708
306.8638
306.8585
306.8143
306.8325
306.8521
306.8702
306.826
306.8551
306.8317
306.8055
306.8055
306.8434
306.8434
306.8172
306.8726
306.8855
306.8414
306.8414
306.879
306.879
306.8349
306.8638
306.8586
306.8143
306.8325
306.8521
306.8703
306.826
306.7792
306.734
306.7675
306.7457
306.8158
306.8434
306.8369
306.8223
306.788
306.7611
306.7545
306.7945
306.8071
306.8162
306.7577
306.7899
306.7955
306.8278
306.7693
306.7795
306.7311
306.7306
306.7082
306.7679
306.7427
306.7422
306.8158
306.843
306.7986
306.7845
306.8366
306.8223
306.7781
306.7882
306.758
306.717
306.7574
306.7515
306.7947
306.7509
306.8315
306.8487
306.8283
306.8519
306.8069
306.7763
306.7754
306.8079
306.8335
306.8548
306.8539
306.8345
306.8054
306.768
306.7654
306.7376
306.8022
306.7712
306.7686
306.8316
306.8483
306.7909
306.8138
306.8284
306.8515
306.7941
306.8074
306.7742
306.7396
306.7716
306.7733
306.8084
306.7706
306.8336
306.8544
306.8157
306.797
306.8535
306.8345
306.7961
306.8875
306.8908
306.8844
306.894
306.8808
306.8702
306.8692
306.8818
306.8895
306.8969
306.896
306.8905
306.8782
306.8635
306.8374
306.829
306.8751
306.8667
306.8406
306.8869
306.8902
306.8461
306.8558
306.8837
306.8934
306.8493
306.8802
306.8696
306.8309
306.8435
306.8687
306.8811
306.8425
306.8889
306.8963
306.8578
306.8523
306.8953
306.8898
306.8513
306.9038
306.9016
306.9006
306.9048
306.9038
306.9016
306.9006
306.9048
306.9058
306.9077
306.9068
306.9068
306.9012
306.8948
306.8605
306.8605
306.898
306.898
306.8638
306.9032
306.9009
306.8625
306.8667
306.9
306.9041
306.8658
306.9032
306.9009
306.8625
306.8667
306.9
306.9041
306.8658
306.9052
306.9071
306.8687
306.8687
306.9061
306.9061
306.8678
306.9018
306.8954
306.8986
306.8986
306.9058
306.9077
306.9068
306.9068
306.9038
306.9015
306.9006
306.9047
306.9032
306.9009
306.8625
306.8667
306.9
306.9041
306.8657
306.9012
306.8948
306.8605
306.8605
306.898
306.898
306.8637
306.9051
306.9071
306.8687
306.8687
306.9061
306.9061
306.8677
306.9032
306.9009
306.8625
306.8667
306.9
306.9041
306.8657
306.8787
306.8637
306.8755
306.8669
306.8894
306.8969
306.8959
306.8904
306.8807
306.8699
306.8689
306.8816
306.8869
306.8901
306.8461
306.8558
306.8837
306.8933
306.8493
306.8781
306.8632
306.8372
306.8287
306.8749
306.8664
306.8404
306.8888
306.8963
306.8578
306.8522
306.8953
306.8898
306.8513
306.8801
306.8693
306.8307
306.8434
306.8684
306.881
306.8424
306.8025
306.7659
306.7993
306.7691
306.8323
306.8542
306.8533
306.8332
306.8045
306.7722
306.7712
306.8055
306.8302
306.8477
306.7892
306.813
306.827
306.8508
306.7924
306.8026
306.7628
306.7621
306.7315
306.7994
306.766
306.7653
306.8322
306.8538
306.815
306.7954
306.8528
306.8331
306.7944
306.8046
306.7691
306.7336
306.7683
306.7681
306.8056
306.7673
306.8335
306.8548
306.8345
306.8539
306.8049
306.7701
306.7733
306.8017
306.8315
306.8487
306.8519
306.8283
306.8074
306.7742
306.7716
306.7396
306.8084
306.7732
306.7706
306.8336
306.8544
306.797
306.8157
306.8345
306.8535
306.796
306.8054
306.768
306.7376
306.7654
306.7712
306.8022
306.7686
306.8316
306.8483
306.8137
306.7908
306.8515
306.8284
306.794
306.8895
306.8969
306.8905
306.896
306.8788
306.864
306.8672
306.8756
306.8875
306.8908
306.894
306.8843
306.8802
306.8696
306.8435
306.8309
306.8811
306.8687
306.8425
306.8889
306.8963
306.8523
306.8578
306.8898
306.8953
306.8513
306.8782
306.8635
306.8289
306.8373
306.8667
306.875
306.8405
306.8869
306.8901
306.8558
306.8461
306.8933
306.8837
306.8493
306.9058
306.9077
306.9068
306.9068
306.9018
306.8954
306.8986
306.8986
306.9038
306.9016
306.9048
306.9006
306.9032
306.9009
306.8667
306.8625
306.9041
306.9
306.8657
306.9052
306.9071
306.8687
306.8687
306.9061
306.9061
306.8678
306.9012
306.8948
306.8605
306.8605
306.898
306.898
306.8637
306.9032
306.9009
306.8667
306.8625
306.9041
306.9
306.8657
306.9038
306.9015
306.9047
306.9006
306.9038
306.9015
306.9048
306.9006
306.9018
306.8953
306.8986
306.8986
306.9051
306.9071
306.8687
306.8687
306.9061
306.9061
306.8677
306.9031
306.9009
306.8667
306.8625
306.9041
306.8999
306.8657
306.9031
306.9009
306.8667
306.8625
306.9041
306.8999
306.8657
306.9011
306.8947
306.8605
306.8605
306.8979
306.8979
306.8637
306.8807
306.8699
306.8816
306.8689
306.8874
306.8907
306.8939
306.8842
306.8787
306.8637
306.8669
306.8754
306.8888
306.8963
306.8522
306.8578
306.8898
306.8953
306.8513
306.8801
306.8693
306.8434
306.8306
306.881
306.8684
306.8424
306.8868
306.8901
306.8558
306.846
306.8933
306.8836
306.8493
306.8781
306.8632
306.8286
306.8372
306.8664
306.8749
306.8404
306.8045
306.7722
306.8055
306.7712
306.8302
306.848
306.8512
306.827
306.8025
306.7658
306.7691
306.7992
306.8322
306.8538
306.7954
306.815
306.8331
306.8528
306.7944
306.8046
306.7691
306.7683
306.7335
306.8056
306.7681
306.7673
306.8301
306.8476
306.813
306.7892
306.8508
306.8269
306.7924
306.8026
306.7627
306.7315
306.762
306.766
306.7993
306.7653
306.8172
306.844
306.8236
306.8376
306.7817
306.7384
306.75
306.7701
306.8084
306.8171
306.8288
306.7968
306.7911
306.7633
306.7607
306.7231
306.7975
306.7568
306.7543
306.8173
306.8437
306.7862
306.7994
306.8238
306.8373
306.7798
306.7824
306.7365
306.7144
306.734
306.748
306.7709
306.7456
306.8087
306.817
306.7907
306.7595
306.8286
306.7971
306.7711
306.8732
306.8861
306.8797
306.8796
306.8557
306.8324
306.8442
306.844
306.8644
306.8591
306.8709
306.8527
306.8639
306.8589
306.8327
306.8146
306.8704
306.8524
306.8262
306.8726
306.8855
306.8414
306.8414
306.8791
306.879
306.8349
306.8552
306.8321
306.8059
306.8057
306.8437
306.8435
306.8174
306.8639
306.8586
306.8325
306.8143
306.8703
306.8522
306.8261
306.8894
306.8969
306.8959
306.8904
306.8787
306.8637
306.8755
306.8669
306.8807
306.8698
306.8816
306.8689
306.8868
306.8901
306.8558
306.8461
306.8933
306.8837
306.8493
306.8888
306.8962
306.8578
306.8522
306.8953
306.8898
306.8512
306.8781
306.8632
306.8372
306.8286
306.8749
306.8664
306.8404
306.88
306.8693
306.8433
306.8306
306.881
306.8683
306.8424
306.8874
306.8907
306.8939
306.8842
306.8806
306.8698
306.8816
306.8688
306.8786
306.8636
306.8754
306.8668
306.8888
306.8962
306.8578
306.8522
306.8953
306.8897
306.8512
306.8868
306.8901
306.8557
306.846
306.8933
306.8836
306.8492
306.88
306.8692
306.8433
306.8305
306.881
306.8683
306.8423
306.878
306.8631
306.8371
306.8285
306.8748
306.8663
306.8403
306.8643
306.859
306.8708
306.8525
306.8643
306.8589
306.8707
306.8525
306.8555
306.8319
306.8437
306.8437
306.8725
306.8854
306.8413
306.8413
306.879
306.8789
306.8348
306.8638
306.8585
306.8325
306.8142
306.8702
306.8521
306.826
306.8637
306.8584
306.8324
306.8142
306.8702
306.852
306.8259
306.855
306.8316
306.8054
306.8054
306.8433
306.8433
306.8172
306.7879
306.761
306.7945
306.7544
306.8069
306.8162
306.828
306.7952
306.7791
306.7338
306.7456
306.7674
306.8158
306.8429
306.7845
306.7986
306.8222
306.8365
306.778
306.7881
306.758
306.7573
306.7169
306.7946
306.7514
306.7508
306.807
306.8161
306.7898
306.7576
306.8277
306.7954
306.7692
306.7794
306.731
306.7081
306.7304
306.7426
306.7678
306.742
306.7606
306.8015
306.7813
306.7807
306.708
306.6527
306.6784
306.677
306.7335
306.72
306.7532
306.7007
306.7358
306.7213
306.7189
306.6682
306.7557
306.7018
306.6991
306.7616
306.8016
306.7442
306.7435
306.7818
306.7812
306.7242
306.7096
306.6532
306.6446
306.6425
306.678
306.676
306.6734
306.7347
306.7176
306.7169
306.6648
306.7539
306.6987
306.6979
306.816
306.8434
306.837
306.8224
306.7797
306.735
306.7682
306.7464
306.7883
306.7617
306.7948
306.7552
306.8075
306.8166
306.7901
306.7584
306.828
306.7961
306.7698
306.8161
306.843
306.7988
306.7848
306.8366
306.8225
306.7784
306.7801
306.7324
306.7317
306.7097
306.7687
306.7437
306.743
306.7887
306.7589
306.758
306.7183
306.7951
306.7524
306.7516
306.8323
306.8542
306.8532
306.8332
306.8027
306.7664
306.7995
306.7696
306.8047
306.7726
306.8056
306.7716
306.8303
306.8477
306.813
306.7894
306.8508
306.8271
306.7926
306.8322
306.8537
306.815
306.7955
306.8528
306.8332
306.7946
306.8029
306.7636
306.7627
306.7327
306.7997
306.7668
306.7659
306.8049
306.7697
306.7688
306.7347
306.8059
306.7688
306.7679
306.8301
306.8479
306.8511
306.8269
306.8046
306.7725
306.8056
306.7715
306.8025
306.7662
306.7993
306.7694
306.8322
306.8537
306.8149
306.7955
306.8527
306.8331
306.7945
306.8301
306.8475
306.8129
306.7893
306.8507
306.8269
306.7925
306.8048
306.7697
306.7688
306.7346
306.8058
306.7687
306.7678
306.8028
306.7634
306.7625
306.7326
306.7996
306.7666
306.7658
306.807
306.8162
306.828
306.7952
306.788
306.7614
306.7946
306.7548
306.7792
306.7343
306.7676
306.746
306.8158
306.8429
306.7986
306.7846
306.8364
306.8223
306.7781
306.8071
306.8161
306.7898
306.7578
306.8277
306.7955
306.7694
306.7884
306.7586
306.7578
306.718
306.7949
306.7521
306.7513
306.7797
306.7317
306.731
306.7092
306.7681
306.7433
306.7426
306.7315
306.7184
306.7519
306.6984
306.7316
306.7188
306.7521
306.6987
306.7048
306.6477
306.6735
306.6737
306.7597
306.8006
306.7422
306.7424
306.78
306.7801
306.7221
306.7325
306.7157
306.7152
306.6616
306.7525
306.6961
306.6953
306.7327
306.7164
306.7157
306.6625
306.7528
306.6966
306.6957
306.7061
306.6474
306.6379
306.6385
306.6721
306.6725
306.6695
306.5986
306.6369
306.6179
306.6018
306.6389
306.6192
306.661
306.6617
306.6418
306.6526
306.6785
306.672
306.6761
306.708
306.6876
306.7028
306.7168
306.6963
306.6691
306.6894
306.6885
306.7075
306.7312
306.7108
306.7137
306.7332
306.7128
306.667
306.683
306.6863
306.7137
306.7331
306.7127
306.7074
306.7311
306.7106
306.6434
306.6512
306.6629
306.7026
306.7165
306.6961
306.6755
306.7076
306.6872
306.5724
306.5715
306.5913
306.6598
306.6595
306.6395
306.5948
306.6348
306.615
306.6772
306.7085
306.6889
306.6572
306.6811
306.6747
306.7174
306.7042
306.6977
306.7326
306.7511
306.7445
306.7329
306.7512
306.7446
306.7601
306.7601
306.7535
306.7492
306.7621
306.7611
306.7649
306.7748
306.7681
306.7711
306.7768
306.7702
306.7471
306.7558
306.759
306.7711
306.7768
306.7701
306.7648
306.7747
306.7681
306.7235
306.7235
306.7354
306.76
306.76
306.7534
306.7324
306.751
306.7444
306.6503
306.6416
306.662
306.7164
306.7023
306.6957
306.6505
306.6774
306.6708
306.7089
306.7318
306.7121
306.6738
306.6921
306.6911
306.7339
306.7151
306.7141
306.7649
306.7748
306.7682
306.7494
306.7622
306.7612
306.7768
306.7711
306.7702
306.7817
306.7859
306.7849
306.7817
306.7859
306.7849
306.788
306.788
306.787
306.7796
306.7796
306.7829
306.788
306.7879
306.787
306.7816
306.7859
306.7849
306.7558
306.747
306.7591
306.7768
306.7711
306.7701
306.7491
306.7621
306.7611
306.6821
306.6651
306.6854
306.733
306.7133
306.7123
306.6672
306.6884
306.6874
306.7151
306.7339
306.7141
306.6717
306.6858
306.6891
306.7318
306.7089
306.7121
306.7711
306.7768
306.7702
306.7474
306.7559
306.7592
306.7748
306.7649
306.7681
306.788
306.788
306.787
306.7796
306.7796
306.7829
306.7859
306.7816
306.7849
306.7859
306.7816
306.7849
306.7859
306.7816
306.7849
306.7795
306.7795
306.7828
306.7621
306.7491
306.7611
306.7747
306.7648
306.7681
306.747
306.7558
306.759
306.6884
306.6672
306.6874
306.731
306.707
306.7102
306.6651
306.6821
306.6854
306.7041
306.7173
306.6976
306.6483
306.6542
306.6658
306.7085
306.6771
306.6888
306.7601
306.76
306.7535
306.7239
306.7237
306.7356
306.751
306.7325
306.7445
306.7768
306.7711
306.7701
306.7558
306.747
306.759
306.762
306.7491
306.7611
306.7747
306.7647
306.768
306.762
306.749
306.761
306.7557
306.7469
306.759
306.7509
306.7323
306.7443
306.7509
306.7323
306.7443
306.7234
306.7234
306.7353
306.6773
306.6504
306.6707
306.7074
306.675
306.6867
306.6415
306.6501
306.6619
306.6616
306.6608
306.6416
306.5784
306.5764
306.5953
306.6367
306.5983
306.6176
306.7166
306.7026
306.6962
306.6517
306.6436
306.6631
306.6783
306.6523
306.6718
306.7331
306.7135
306.7126
306.683
306.6668
306.6862
306.6892
306.6689
306.6882
306.731
306.7072
306.7105
306.6892
306.6688
306.6882
306.6828
306.6667
306.6861
306.7075
306.6753
306.687
306.678
306.652
306.6715
306.6509
306.6431
306.6627
306.6347
306.5946
306.6148
306.6354
306.5959
306.6153
306.5713
306.5721
306.5911
)
;

boundaryField
{
    solid_to_air
    {
        type            compressible::turbulentTemperatureRadCoupledMixed;
        refValue        nonuniform List<scalar> 
1536
(
300.6637
300.6816
300.7062
300.7134
300.7022
300.6752
300.6751
300.8859
301.0018
301.028
300.9886
300.8459
300.6984
300.9974
301.1192
301.1426
301.1072
300.9468
300.7048
301.0213
301.1409
301.1628
301.1294
300.9703
300.6937
300.9794
301.1027
301.1272
301.0904
300.9294
300.668
300.8365
300.9368
300.9619
300.9241
300.8033
300.977
300.974
300.406
300.4134
300.438
300.4254
300.4583
300.4283
300.4622
300.4229
300.4536
300.4094
300.4246
300.9729
300.4133
300.4368
300.632
300.6649
300.6709
300.6578
300.611
300.4135
300.4253
300.4572
300.665
300.7033
300.7104
300.695
300.6412
300.4257
300.4282
300.4611
300.6711
300.7104
300.7177
300.7019
300.6468
300.4287
300.4229
300.4525
300.658
300.6951
300.7019
300.6871
300.635
300.4233
300.4096
300.4237
300.6113
300.6414
300.6468
300.635
300.5922
300.4097
300.9769
300.4134
300.4254
300.4283
300.4229
300.4094
301.2515
300.4666
300.4697
300.4792
300.4817
300.4848
300.4848
300.4817
300.4792
300.4696
300.4663
301.2408
301.245
300.4658
300.6741
300.668
300.7952
300.7012
300.8366
300.9196
300.7133
300.937
300.9618
300.7069
300.9621
300.9407
300.6829
300.9244
300.8445
300.6697
300.8034
300.6822
301.2481
300.4675
300.469
300.4785
300.8352
300.6937
300.9145
300.9832
300.9796
301.085
301.0276
301.1029
301.1267
301.0058
301.1272
301.1063
300.8958
301.0905
300.9921
300.6903
300.9295
300.7108
300.4707
300.4803
300.4809
300.484
300.9309
300.7048
300.9537
301.1021
301.0214
301.1245
301.1422
301.1409
301.1623
301.1226
301.1628
301.1438
301.0101
301.1295
301.0341
300.716
300.9703
300.723
300.4828
300.4859
300.484
300.4809
300.9536
300.6984
300.931
301.1247
300.9975
301.1019
301.1625
301.1191
301.142
301.1439
301.1425
301.1225
301.0342
301.1072
301.01
300.7231
300.9467
300.7159
300.4859
300.4828
300.4785
300.469
300.9143
300.6751
300.8352
301.085
300.8857
300.9828
301.1268
301.0017
301.0273
301.1065
301.0279
301.0055
300.9921
300.9884
300.8958
300.7108
300.8459
300.6902
300.4803
300.4707
300.4657
301.2449
300.7951
300.6637
300.674
301.2515
300.4666
300.9193
300.6816
300.7012
300.4697
300.4792
300.9614
300.7062
300.7132
300.4817
300.4848
300.9404
300.7134
300.7069
300.4848
300.4817
300.8444
300.7022
300.6828
300.4792
300.4696
300.6821
300.6752
300.6696
300.4675
300.4663
301.2481
301.2407
300.4097
300.4248
300.4096
300.4237
300.5925
300.423
300.4537
300.6113
300.6352
300.4284
300.4623
300.6414
300.6469
300.4253
300.4583
300.6468
300.6413
300.4132
300.4379
300.635
300.6111
300.9695
300.4058
300.5922
300.4097
300.4259
300.6114
300.4229
300.4525
300.6352
300.658
300.658
300.6873
300.671
300.6951
300.702
300.6648
300.7019
300.695
300.6318
300.6871
300.6578
300.4392
300.635
300.4233
300.455
300.6415
300.4282
300.4611
300.647
300.6951
300.6711
300.702
300.7105
300.7105
300.7179
300.7033
300.7177
300.7105
300.6648
300.7019
300.6709
300.4597
300.6468
300.4287
300.4636
300.647
300.4253
300.4572
300.6415
300.702
300.665
300.6951
300.7179
300.7033
300.7105
300.7105
300.7104
300.7033
300.6709
300.695
300.6648
300.4636
300.6412
300.4257
300.4597
300.6352
300.4133
300.4369
300.6114
300.6873
300.632
300.658
300.702
300.6649
300.671
300.6951
300.6709
300.6648
300.6578
300.6578
300.6318
300.455
300.6111
300.4135
300.4392
300.5925
300.974
300.406
300.4097
300.4248
300.6352
300.438
300.423
300.4537
300.647
300.4583
300.4284
300.4623
300.6413
300.4622
300.4253
300.4583
300.6111
300.4536
300.4132
300.4379
300.4259
300.4246
300.9728
300.9694
300.4058
300.6871
300.6846
300.6798
301.1656
301.1607
300.6555
300.6521
300.7462
300.6886
300.7306
300.5642
300.5673
300.7873
300.7097
300.7807
300.5763
300.578
300.7926
300.7124
300.7944
300.5798
300.5793
300.763
300.6968
300.7736
300.5739
300.5712
300.6971
300.6741
300.7148
300.5618
300.5724
301.1648
300.6568
300.7424
300.7277
300.6818
300.5618
300.565
300.9685
300.9258
300.9245
301.0593
301.0146
301.0464
301.0691
301.0246
301.0724
301.0102
300.9656
301.0334
300.8161
300.7903
300.8796
300.5667
300.5699
300.7808
300.7748
300.7016
300.5738
300.5755
301.0557
301.0434
301.0095
301.1416
301.1307
301.1301
301.1499
301.1394
301.1527
301.0966
301.0848
301.1184
300.8796
300.8697
300.9587
300.5789
300.5806
300.785
300.7869
300.7038
300.5772
300.5767
301.0635
301.0673
301.0174
301.1484
301.1517
301.1372
301.1565
301.1597
301.1593
301.1042
301.1078
301.1257
300.8862
300.8893
300.9666
300.5823
300.5818
300.7557
300.766
300.6885
300.5713
300.5685
301.0015
301.0255
300.9558
301.0918
301.1147
301.0792
301.1013
301.1239
301.1045
301.0435
301.0675
301.0666
300.8382
300.8554
300.9078
300.5763
300.5736
300.6928
300.7093
300.6676
300.5594
300.5705
300.8064
300.8695
300.7817
300.8688
300.9491
300.8588
300.8766
300.9588
300.8793
300.8324
300.9037
300.8485
300.7238
300.7581
300.7566
300.5641
300.5752
301.1656
300.6555
300.5642
300.5673
300.5763
300.578
300.5798
300.5793
300.5739
300.5712
300.5618
300.5724
300.6068
300.436
300.4778
300.4348
300.4769
300.6214
300.4441
300.417
300.6138
300.6392
300.4602
300.4269
300.6369
300.6406
300.4617
300.4279
300.6411
300.6276
300.4501
300.4203
300.6319
300.5875
300.4203
300.4148
300.5989
300.6221
300.6145
300.4429
300.4169
300.6535
300.6425
300.6425
300.6803
300.668
300.6769
300.6824
300.6701
300.6832
300.6632
300.6518
300.6695
300.6027
300.5939
300.6208
300.6399
300.6377
300.459
300.4268
300.6803
300.677
300.668
300.7107
300.707
300.7069
300.7132
300.7095
300.7141
300.6914
300.688
300.6985
300.624
300.6214
300.6441
300.6415
300.642
300.4606
300.4278
300.6826
300.6834
300.6703
300.7133
300.7142
300.7095
300.7159
300.7168
300.7168
300.6939
300.6947
300.701
300.6259
300.6265
300.6461
300.6286
300.6328
300.449
300.4203
300.6634
300.6697
300.652
300.6915
300.6986
300.6881
300.6939
300.701
300.6947
300.6737
300.6803
300.6803
300.6107
300.6157
300.6295
300.5887
300.5999
300.4197
300.4153
300.6032
300.6211
300.5944
300.6244
300.6442
300.6218
300.6261
300.6461
300.6267
300.6109
300.6295
300.6158
300.5632
300.5765
300.5766
300.5618
300.5731
301.3249
300.5815
300.634
300.5025
300.4776
300.5168
300.5737
300.5709
300.505
300.4731
300.5081
300.5143
300.4766
300.5116
300.5797
300.5792
300.5168
300.4832
300.5184
300.52
300.4843
300.5195
300.5765
300.5781
300.52
300.4843
300.5196
300.5169
300.4832
300.5184
300.5644
300.5676
300.5143
300.4766
300.5117
300.505
300.4731
300.5082
301.1591
300.6528
300.5022
300.4764
300.5155
301.314
300.5773
300.6292
300.5594
300.5705
301.3171
300.5783
300.6296
300.5011
300.4763
300.5147
300.694
300.6734
300.7114
300.6928
300.6676
300.7093
300.7181
300.751
300.7496
300.7602
300.6957
300.7713
300.8065
300.7818
300.8697
300.828
300.845
300.8979
300.7919
300.7121
300.7941
300.8688
300.859
300.9492
300.8757
300.8792
300.9577
300.7885
300.7102
300.7825
300.8767
300.8795
300.9588
300.8709
300.8619
300.9518
300.7494
300.6899
300.734
300.8325
300.8487
300.9038
300.8118
300.7875
300.8769
300.6905
300.6855
300.6909
300.7239
300.7567
300.7581
300.6985
300.6807
300.7171
300.5641
300.5752
301.3228
300.5809
300.6343
300.5042
300.4781
300.5182
300.5713
300.5686
300.5037
300.4724
300.5069
300.513
300.4759
300.5104
300.8025
300.7791
300.867
300.7557
300.6885
300.766
300.8228
300.8938
300.8386
301.0029
300.9586
301.0279
301.0017
300.9561
301.0257
301.0361
301.0611
301.0601
301.0678
301.0232
301.0721
301.0919
301.0793
301.1149
301.1001
301.1041
301.1227
301.0619
301.0173
301.0504
301.1014
301.1046
301.124
301.0943
301.0831
301.1171
300.978
300.9345
300.9357
301.0436
301.0667
301.0677
301.0114
300.9681
301.0355
300.7537
300.7373
300.6977
300.8382
300.9079
300.8555
300.7683
300.7051
300.7797
300.5763
300.5736
300.5068
300.4741
300.5099
300.5161
300.4777
300.5134
300.5772
300.5767
300.5155
300.4825
300.5171
300.5187
300.4836
300.5182
300.8607
300.8516
300.9423
300.785
300.7038
300.7869
300.8669
300.9501
300.8699
301.0896
301.0776
301.1136
301.0637
301.0175
301.0675
301.0972
301.1209
301.1009
301.1489
301.1383
301.1526
301.1484
301.1373
301.1518
301.1555
301.159
301.1587
301.1436
301.1329
301.1335
301.1564
301.1593
301.1598
301.1503
301.1403
301.1535
301.0655
301.0533
301.0224
301.1042
301.1257
301.1079
301.0733
301.0302
301.077
300.796
300.7893
300.7195
300.8862
300.9666
300.8893
300.8006
300.722
300.8027
300.5823
300.5818
300.5186
300.4844
300.5202
300.5219
300.4855
300.5214
300.5738
300.5755
300.5187
300.4836
300.5182
300.5155
300.4825
300.5171
300.8668
300.8698
300.9499
300.7808
300.7016
300.7748
300.8607
300.9424
300.8517
301.0972
301.1009
301.121
301.0557
301.0096
301.0435
301.0895
301.1134
301.0775
301.1555
301.1587
301.1591
301.1416