/*--------------------------------*- C++ -*----------------------------------*\
| =========                 |                                                 |
| \\      /  F ield         | OpenFOAM: The Open Source CFD Toolbox           |
|  \\    /   O peration     | Version:  2506                                  |
|   \\  /    A nd           | Website:  www.openfoam.com                      |
|    \\/     M anipulation  |                                                 |
\*---------------------------------------------------------------------------*/
FoamFile
{
    version     2.0;
    format      ascii;
    arch        "LSB;label=32;scalar=64";
    class       volScalarField;
    location    "90/airRegion";
    object      alphat;
}
// * * * * * * * * * * * * * * * * * * * * * * * * * * * * * * * * * * * * * //

dimensions      [1 -1 -1 0 0 0 0];

internalField   nonuniform List<scalar> 
260661
(
0.09729412
0.0954877
0.0986501
0.09635287
0.09608478
0.09669878
0.09699573
0.09706073
0.09706703
0.09706653
0.09706638
0.0970665
0.09706661
0.09706665
0.09706661
0.09706653
0.09706642
0.09706628
0.09706614
0.097066
0.09706586
0.09706573
0.0970656
0.09706548
0.09706538
0.09706529
0.09706521
0.09706514
0.09706509
0.09706506
0.09706504
0.09706505
0.09706507
0.09706512
0.09706519
0.09706528
0.0970654
0.09706553
0.09706561
0.09706551
0.09706477
0.09706196
0.09705249
0.09702102
0.0969138
0.09652967
0.09509646
0.08966006
0.07164347
0.01477815
0.09506659
0.09609926
0.09701496
0.09672098
0.09670927
0.09695483
0.09706738
0.09708977
0.09709068
0.09709
0.09708987
0.09708992
0.09708992
0.09708984
0.09708969
0.09708949
0.09708926
0.09708901
0.09708876
0.0970885
0.09708825
0.09708802
0.09708779
0.09708758
0.09708738
0.0970872
0.09708704
0.09708689
0.09708676
0.09708666
0.09708656
0.09708649
0.09708643
0.09708639
0.09708636
0.09708634
0.09708631
0.09708626
0.0970861
0.09708567
0.09708444
0.09708087
0.09707013
0.09703659
0.09692701
0.09655093
0.09518604
0.08991829
0.06930952
0.0142518
0.09547445
0.09661936
0.09696798
0.0970047
0.09704068
0.09709902
0.09712057
0.09712269
0.09712129
0.09712026
0.09711961
0.09711905
0.09711845
0.0971178
0.09711712
0.09711641
0.0971157
0.097115
0.09711431
0.09711363
0.09711298
0.09711235
0.09711175
0.09711118
0.09711064
0.09711012
0.09710963
0.09710916
0.09710872
0.09710828
0.09710785
0.09710741
0.09710696
0.09710648
0.09710595
0.09710534
0.09710462
0.09710371
0.09710249
0.09710068
0.09709762
0.09709147
0.09707685
0.09703687
0.09691587
0.09652013
0.09513261
0.08985111
0.06914827
0.01414998
0.09638005
0.09685091
0.09704384
0.09709794
0.0971207
0.09713307
0.09713523
0.09713393
0.09713229
0.09713084
0.09712948
0.09712811
0.09712671
0.09712529
0.09712387
0.09712246
0.09712107
0.09711971
0.09711839
0.09711711
0.09711588
0.09711469
0.09711355
0.09711245
0.09711141
0.09711041
0.09710944
0.09710851
0.09710759
0.09710667
0.09710574
0.09710478
0.09710374
0.09710261
0.09710134
0.09709987
0.09709811
0.09709595
0.09709317
0.09708938
0.09708372
0.09707398
0.09705406
0.0970056
0.09686969
0.09644658
0.09501359
0.08969373
0.06918323
0.01410644
0.09598933
0.09673576
0.097055
0.09712108
0.09713641
0.09714112
0.09714125
0.09713972
0.09713767
0.09713542
0.09713308
0.09713068
0.09712827
0.09712586
0.09712349
0.09712117
0.0971189
0.0971167
0.09711456
0.09711248
0.09711048
0.09710855
0.0971067
0.09710492
0.09710321
0.09710157
0.09709998
0.09709843
0.0970969
0.09709536
0.09709378
0.09709212
0.09709032
0.09708834
0.09708609
0.09708348
0.09708037
0.09707657
0.09707179
0.09706547
0.09705653
0.09704239
0.09701621
0.09695817
0.09680642
0.09635594
0.09487979
0.08952991
0.06920076
0.01407985
0.09670102
0.0969723
0.09710344
0.09713166
0.09714039
0.09714328
0.09714287
0.09714077
0.09713784
0.09713452
0.09713101
0.09712744
0.09712387
0.09712035
0.09711689
0.09711352
0.09711022
0.09710702
0.09710391
0.0971009
0.09709798
0.09709517
0.09709247
0.09708987
0.09708738
0.09708498
0.09708266
0.0970804
0.09707816
0.0970759
0.09707356
0.09707109
0.09706841
0.09706544
0.09706206
0.09705814
0.09705347
0.0970478
0.09704072
0.09703155
0.09701896
0.09700002
0.09696723
0.09689951
0.09673266
0.09625797
0.09474713
0.08938031
0.06920766
0.01406148
0.09700727
0.09707255
0.09711971
0.09713374
0.09714073
0.09714283
0.09714164
0.09713858
0.09713453
0.09712998
0.09712522
0.0971204
0.09711561
0.09711088
0.09710624
0.09710171
0.09709729
0.09709298
0.09708879
0.09708472
0.09708078
0.09707697
0.09707332
0.09706981
0.09706644
0.09706321
0.09706008
0.09705703
0.09705402
0.09705097
0.09704783
0.0970445
0.09704088
0.09703685
0.09703226
0.09702693
0.0970206
0.09701294
0.09700344
0.09699128
0.09697493
0.09695112
0.09691182
0.09683492
0.09665449
0.09615938
0.09462176
0.08924694
0.06920886
0.01404794
0.0970627
0.09708925
0.09712143
0.09713328
0.09713964
0.09714091
0.09713871
0.0971345
0.09712922
0.0971234
0.09711735
0.09711125
0.09710518
0.0970992
0.09709333
0.09708758
0.09708195
0.09707644
0.09707108
0.09706586
0.09706081
0.09705592
0.09705121
0.0970467
0.09704239
0.09703826
0.09703429
0.09703042
0.0970266
0.09702275
0.09701878
0.09701458
0.09701
0.0970049
0.09699908
0.09699232
0.0969843
0.09697462
0.09696269
0.09694754
0.09692749
0.09689898
0.09685352
0.09676824
0.09657594
0.09606389
0.0945056
0.0891282
0.06920619
0.01403743
0.09706675
0.09709
0.09712086
0.09713226
0.09713791
0.09713819
0.09713486
0.09712944
0.0971229
0.09711579
0.09710845
0.09710105
0.0970937
0.09708643
0.09707928
0.09707226
0.09706535
0.09705859
0.09705198
0.09704553
0.09703926
0.0970332
0.09702736
0.09702178
0.09701646
0.0970114
0.09700655
0.09700186
0.09699725
0.09699261
0.09698784
0.09698277
0.09697726
0.09697111
0.09696409
0.09695593
0.09694626
0.09693461
0.09692031
0.09690229
0.0968787
0.09684577
0.09679466
0.0967019
0.09649933
0.09597325
0.09439883
0.08902207
0.06920095
0.01402897
0.0970665
0.09708989
0.09712031
0.09713111
0.09713588
0.09713509
0.09713059
0.09712395
0.09711615
0.09710776
0.09709914
0.09709045
0.0970818
0.09707324
0.09706479
0.09705644
0.09704822
0.09704014
0.09703221
0.09702443
0.09701686
0.09700954
0.09700251
0.0969958
0.09698942
0.09698339
0.09697766
0.09697216
0.09696679
0.09696142
0.09695589
0.09695003
0.09694364
0.0969365
0.09692834
0.09691885
0.09690761
0.09689409
0.09687755
0.09685683
0.09682995
0.09679297
0.09673674
0.09663736
0.09642597
0.0958882
0.09430102
0.08892678
0.06919409
0.01402198
0.09706651
0.09708995
0.09711983
0.09712991
0.09713374
0.09713187
0.09712621
0.09711836
0.09710933
0.0970997
0.09708981
0.09707985
0.09706991
0.09706004
0.09705026
0.09704058
0.097031
0.09702153
0.09701219
0.09700303
0.09699407
0.0969854
0.09697708
0.09696918
0.09696171
0.0969547
0.0969481
0.09694184
0.09693578
0.09692974
0.09692354
0.09691698
0.0969098
0.09690176
0.09689256
0.09688184
0.09686914
0.09685388
0.09683526
0.09681205
0.09678217
0.09674151
0.09668072
0.09657554
0.09635657
0.095809
0.09421157
0.08884091
0.06918623
0.01401607
0.09706662
0.09709002
0.09711934
0.09712869
0.09713159
0.09712867
0.09712189
0.09711288
0.09710266
0.09709182
0.0970807
0.09706949
0.09705827
0.0970471
0.09703599
0.09702494
0.09701396
0.09700305
0.09699225
0.09698161
0.09697118
0.09696107
0.09695138
0.09694221
0.09693362
0.09692563
0.09691821
0.09691124
0.09690456
0.09689797
0.09689122
0.09688406
0.09687622
0.0968674
0.09685727
0.09684544
0.09683143
0.09681459
0.09679408
0.09676861
0.09673601
0.09669206
0.09662724
0.09651698
0.09629149
0.09573566
0.09412986
0.08876334
0.06917784
0.01401101
0.09706669
0.09709002
0.09711882
0.09712747
0.0971295
0.09712558
0.09711774
0.09710762
0.09709626
0.09708426
0.09707195
0.09705952
0.09704706
0.09703459
0.09702216
0.09700973
0.09699731
0.09698492
0.09697259
0.09696039
0.0969484
0.09693676
0.09692561
0.0969151
0.09690536
0.09689641
0.09688822
0.09688064
0.09687346
0.09686643
0.09685927
0.09685165
0.09684328
0.09683382
0.0968229
0.0968101
0.09679491
0.09677666
0.09675446
0.09672696
0.09669193
0.09664507
0.09657669
0.09646202
0.09623091
0.09566805
0.09405538
0.08869323
0.06916928
0.01400664
0.09706671
0.09708995
0.09711828
0.09712629
0.0971275
0.09712266
0.09711382
0.09710266
0.09709022
0.09707711
0.09706367
0.09705006
0.09703638
0.09702266
0.09700891
0.0969951
0.09698123
0.09696732
0.09695341
0.09693956
0.09692592
0.09691266
0.09689997
0.09688809
0.09687717
0.09686729
0.09685839
0.09685031
0.09684277
0.09683545
0.09682801
0.09682009
0.09681133
0.09680137
0.0967898
0.09677618
0.09675997
0.09674048
0.09671678
0.09668749
0.09665032
0.09660088
0.09652939
0.09641086
0.09617491
0.09560607
0.09398768
0.08862994
0.06916078
0.01400284
0.09706668
0.09708983
0.09711774
0.09712516
0.09712562
0.09711993
0.09711016
0.09709803
0.09708459
0.09707044
0.09705592
0.09704119
0.09702634
0.09701141
0.09699636
0.09698118
0.09696586
0.09695041
0.09693488
0.09691934
0.09690399
0.09688903
0.09687474
0.09686143
0.09684932
0.09683854
0.09682903
0.09682056
0.0968128
0.09680535
0.0967978
0.09678972
0.09678072
0.09677039
0.09675832
0.09674402
0.09672693
0.09670637
0.09668136
0.09665049
0.09661144
0.09655975
0.09648554
0.09636367
0.09612353
0.09554956
0.09392641
0.08857296
0.06915254
0.01399953
0.09706662
0.09708968
0.09711721
0.0971241
0.09712388
0.09711741
0.09710681
0.09709378
0.09707941
0.09706429
0.09704876
0.09703298
0.09701703
0.09700092
0.09698463
0.09696813
0.09695138
0.09693441
0.09691724
0.09690001
0.0968829
0.09686619
0.09685025
0.09683548
0.0968222
0.09681056
0.09680053
0.0967918
0.09678396
0.09677654
0.09676902
0.09676092
0.09675181
0.09674125
0.09672878
0.09671393
0.09669611
0.09667462
0.09664848
0.09661623
0.09657553
0.09652188
0.09644531
0.09632055
0.0960768
0.09549844
0.09387129
0.08852192
0.0691447
0.01399664
0.09706653
0.09708951
0.0971167
0.09712312
0.0971223
0.09711513
0.09710376
0.09708993
0.0970747
0.09705869
0.09704223
0.09702548
0.09700851
0.09699131
0.09697385
0.09695608
0.09693798
0.09691953
0.09690078
0.09688186
0.096863
0.09684456
0.09682697
0.09681075
0.09679632
0.09678391
0.09677343
0.09676456
0.09675677
0.09674948
0.0967421
0.09673409
0.09672497
0.09671427
0.09670151
0.09668621
0.09666778
0.0966455
0.09661837
0.09658493
0.09654281
0.09648746
0.09640884
0.09628158
0.09603472
0.09545261
0.0938221
0.08847655
0.06913738
0.01399413
0.09706644
0.09708935
0.09711623
0.09712223
0.09712088
0.09711309
0.09710104
0.09708648
0.0970705
0.09705369
0.09703639
0.09701876
0.09700086
0.09698267
0.09696413
0.09694521
0.09692584
0.09690602
0.09688578
0.09686527
0.09684475
0.09682465
0.09680549
0.09678788
0.09677237
0.09675924
0.09674842
0.09673948
0.09673181
0.09672471
0.09671753
0.09670967
0.09670059
0.0966898
0.09667682
0.09666116
0.09664221
0.09661924
0.09659126
0.0965568
0.09651344
0.09645662
0.09637624
0.09624684
0.09599732
0.09541202
0.0937787
0.08843661
0.06913067
0.01399197
0.09706635
0.09708918
0.09711581
0.09712145
0.09711962
0.0971113
0.09709865
0.09708347
0.09706681
0.09704931
0.09703127
0.09701287
0.09699414
0.09697508
0.09695561
0.09693566
0.09691517
0.09689413
0.09687257
0.09685064
0.09682864
0.09680703
0.09678644
0.0967676
0.09675112
0.09673736
0.09672624
0.09671726
0.09670971
0.09670281
0.09669582
0.09668809
0.09667904
0.09666818
0.09665502
0.09663904
0.09661963
0.09659607
0.09656735
0.096532
0.09648758
0.0964295
0.09634761
0.09621638
0.09596461
0.09537661
0.09374095
0.08840196
0.06912465
0.01399014
0.09706626
0.09708903
0.09711544
0.09712077
0.09711855
0.09710976
0.09709661
0.09708089
0.09706366
0.09704556
0.0970269
0.09700785
0.09698843
0.09696863
0.09694837
0.09692757
0.09690616
0.09688412
0.09686146
0.09683835
0.09681512
0.09679227
0.09677051
0.09675062
0.09673333
0.09671903
0.09670763
0.09669858
0.09669109
0.09668431
0.09667744
0.09666976
0.09666071
0.09664975
0.09663638
0.09662009
0.09660027
0.09657617
0.09654681
0.09651069
0.09646536
0.09640621
0.09632305
0.09619027
0.09593661
0.09534635
0.09370877
0.08837247
0.06911937
0.0139886
0.09706618
0.0970889
0.09711512
0.0971202
0.09711765
0.09710849
0.09709493
0.09707876
0.09706107
0.09704248
0.09702332
0.09700373
0.09698377
0.09696339
0.09694252
0.09692106
0.09689895
0.09687615
0.09685268
0.09682873
0.09680461
0.09678086
0.09675824
0.09673759
0.09671967
0.09670492
0.09669324
0.09668405
0.0966765
0.09666969
0.09666278
0.09665505
0.09664588
0.09663474
0.09662112
0.09660451
0.09658429
0.09655971
0.09652977
0.09649299
0.09644688
0.09638683
0.0963026
0.09616856
0.09591334
0.09532123
0.09368209
0.08834806
0.06911488
0.01398735
0.09706611
0.09708879
0.09711487
0.09711974
0.09711694
0.09710748
0.09709359
0.09707708
0.09705903
0.09704008
0.09702053
0.09700056
0.09698019
0.0969594
0.09693811
0.09691622
0.09689366
0.0968704
0.09684645
0.096822
0.09679737
0.09677312
0.09675001
0.09672891
0.09671059
0.09669549
0.09668351
0.09667407
0.0966663
0.09665928
0.09665215
0.09664419
0.09663478
0.09662336
0.09660942
0.09659245
0.09657183
0.09654679
0.09651635
0.09647898
0.09643223
0.09637143
0.09628634
0.09615127
0.0958948
0.09530124
0.09366087
0.08832864
0.06911123
0.01398637
0.09706606
0.0970887
0.09711468
0.0971194
0.09711641
0.09710673
0.09709262
0.09707586
0.09705756
0.09703835
0.09701855
0.09699833
0.09697772
0.09695669
0.09693518
0.09691309
0.09689034
0.09686691
0.09684283
0.09681826
0.09679355
0.09676922
0.09674602
0.09672479
0.09670629
0.09669094
0.09667865
0.09666883
0.09666066
0.09665324
0.0966457
0.09663734
0.09662752
0.0966157
0.09660137
0.096584
0.09656297
0.09653751
0.09650661
0.09646876
0.09642147
0.09636007
0.0962743
0.09613844
0.09588103
0.09528636
0.09364508
0.08831418
0.06910843
0.01398565
0.09706602
0.09708865
0.09711455
0.09711918
0.09711607
0.09710626
0.097092
0.0970751
0.09705666
0.09703731
0.09701739
0.09699706
0.09697636
0.09695528
0.09693374
0.09691167
0.096889
0.0968657
0.09684182
0.09681751
0.0967931
0.0967691
0.09674619
0.09672516
0.0967067
0.09669121
0.09667859
0.09666831
0.09665957
0.09665155
0.09664342
0.09663449
0.09662413
0.09661181
0.09659702
0.09657922
0.09655777
0.09653191
0.09650061
0.09646235
0.09641464
0.09635279
0.09626653
0.0961301
0.09587204
0.09527662
0.09363471
0.08830466
0.06910653
0.01398518
0.097066
0.09708861
0.09711449
0.09711907
0.09711592
0.09710606
0.09709175
0.0970748
0.09705633
0.09703697
0.09701705
0.09699674
0.09697612
0.09695514
0.09693376
0.09691192
0.09688957
0.09686668
0.0968433
0.09681958
0.09679582
0.09677249
0.0967502
0.09672963
0.09671142
0.0966959
0.09668297
0.09667216
0.09666277
0.09665402
0.09664516
0.09663554
0.09662454
0.09661166
0.09659636
0.09657809
0.09655624
0.09653002
0.09649838
0.0964598
0.09641178
0.09634963
0.09626306
0.0961263
0.09586788
0.09527205
0.0936298
0.08830012
0.06910556
0.01398496
0.09706599
0.09708861
0.09711449
0.09711909
0.09711596
0.09710613
0.09709186
0.09707497
0.09705657
0.09703731
0.09701752
0.09699737
0.09697695
0.09695623
0.09693519
0.09691377
0.09689193
0.09686966
0.09684701
0.09682414
0.09680131
0.0967789
0.09675748
0.0967376
0.0967198
0.09670435
0.09669117
0.09667984
0.09666976
0.09666024
0.09665061
0.09664024
0.09662857
0.09661509
0.09659927
0.09658057
0.09655834
0.09653181
0.09649991
0.09646111
0.09641291
0.09635061
0.09626393
0.09612708
0.09586858
0.09527271
0.09363043
0.08830065
0.06910562
0.01398499
0.09706601
0.09708864
0.09711456
0.09711923
0.09711619
0.09710647
0.09709233
0.0970756
0.09705737
0.09703831
0.09701876
0.0969989
0.0969788
0.09695848
0.09693792
0.09691707
0.0968959
0.09687443
0.0968527
0.09683084
0.0968091
0.09678781
0.09676741
0.09674837
0.09673111
0.09671584
0.09670248
0.09669069
0.09667997
0.09666971
0.09665931
0.09664823
0.0966359
0.09662185
0.09660556
0.09658646
0.09656392
0.09653716
0.0965051
0.09646621
0.09641797
0.0963557
0.09626909
0.09613239
0.09587413
0.09527857
0.09363655
0.08830622
0.0691067
0.01398527
0.09706604
0.09708869
0.0971147
0.09711949
0.0971166
0.09710707
0.09709315
0.09707666
0.09705871
0.09703995
0.09702074
0.09700126
0.09698161
0.09696181
0.09694184
0.09692168
0.09690131
0.09688075
0.09686005
0.09683933
0.09681878
0.09679869
0.09677941
0.09676129
0.09674467
0.09672968
0.09671625
0.09670412
0.09669285
0.09668195
0.09667088
0.09665914
0.09664624
0.09663169
0.09661499
0.09659558
0.09657283
0.09654593
0.09651383
0.09647496
0.09642684
0.09636476
0.09627844
0.09614215
0.09588441
0.09528953
0.09364807
0.08831671
0.0691087
0.01398579
0.09706609
0.09708878
0.0971149
0.09711986
0.0971172
0.09710793
0.09709431
0.09707815
0.09706056
0.0970422
0.09702343
0.09700444
0.09698533
0.09696614
0.09694686
0.09692748
0.096908
0.09688843
0.09686883
0.09684929
0.09682998
0.09681112
0.09679297
0.09677583
0.0967599
0.09674528
0.09673192
0.09671959
0.09670792
0.09669652
0.09668491
0.09667266
0.09665929
0.09664435
0.09662735
0.09660774
0.09658488
0.09655798
0.09652595
0.09648727
0.09643942
0.09637772
0.09629191
0.09615626
0.09589937
0.09530552
0.09366492
0.08833207
0.06911157
0.01398656
0.09706616
0.09708888
0.09711517
0.09712035
0.09711797
0.09710904
0.0970958
0.09708005
0.09706291
0.09704504
0.0970268
0.09700839
0.09698991
0.0969714
0.09695289
0.09693437
0.09691583
0.09689729
0.09687881
0.09686047
0.09684239
0.09682475
0.09680774
0.09679157
0.09677637
0.09676223
0.09674906
0.09673668
0.09672479
0.09671306
0.09670109
0.09668847
0.09667479
0.0966596
0.09664243
0.09662275
0.09659993
0.09657315
0.09654135
0.096503
0.0964556
0.09639448
0.09630939
0.09617467
0.09591894
0.0953265
0.09368709
0.08835229
0.06911529
0.01398759
0.09706624
0.09708902
0.0971155
0.09712095
0.09711892
0.09711041
0.09709762
0.09708237
0.09706576
0.09704845
0.09703082
0.09701307
0.09699529
0.09697755
0.09695986
0.09694224
0.09692468
0.0969072
0.09688985
0.0968727
0.09685582
0.09683937
0.09682346
0.09680825
0.09679383
0.09678023
0.09676737
0.0967551
0.09674317
0.0967313
0.09671915
0.09670634
0.09669251
0.09667723
0.09666005
0.09664045
0.0966178
0.0965913
0.09655989
0.09652205
0.09647529
0.09641495
0.09633083
0.0961973
0.09594308
0.09535245
0.09371458
0.08837741
0.06911983
0.01398889
0.09706633
0.09708918
0.09711589
0.09712166
0.09712005
0.09711202
0.09709977
0.09708509
0.09706909
0.09705242
0.09703547
0.09701844
0.09700144
0.09698452
0.09696771
0.09695102
0.09693446
0.09691805
0.09690183
0.09688583
0.09687012
0.09685481
0.09683999
0.09682574
0.09681211
0.09679911
0.09678667
0.09677466
0.09676287
0.09675103
0.09673888
0.09672607
0.09671226
0.09669706
0.09668003
0.09666067
0.09663835
0.09661229
0.09658144
0.09654429
0.09649837
0.09643904
0.09635614
0.09622411
0.09597175
0.09538336
0.09374741
0.08840747
0.06912513
0.01399047
0.09706644
0.09708936
0.09711634
0.09712249
0.09712135
0.09711387
0.09710223
0.0970882
0.09707288
0.09705694
0.09704074
0.09702449
0.09700832
0.09699227
0.09697638
0.09696065
0.09694511
0.09692977
0.09691465
0.09689977
0.09688521
0.096871
0.09685723
0.09684392
0.09683112
0.09681879
0.09680687
0.09679524
0.09678373
0.09677211
0.09676012
0.09674749
0.09673387
0.09671892
0.09670221
0.09668325
0.09666143
0.09663599
0.09660588
0.09656961
0.09652474
0.09646666
0.09638525
0.09625503
0.09600493
0.09541925
0.09378564
0.08844255
0.06913117
0.01399234
0.09706655
0.09708956
0.09711685
0.09712342
0.09712283
0.09711598
0.09710501
0.0970917
0.09707714
0.09706198
0.09704659
0.09703119
0.0970159
0.09700076
0.09698582
0.09697109
0.09695657
0.09694229
0.09692826
0.09691449
0.09690103
0.0968879
0.09687515
0.09686278
0.0968508
0.0968392
0.0968279
0.09681677
0.09680567
0.09679441
0.09678276
0.09677045
0.0967572
0.09674267
0.09672644
0.09670804
0.09668689
0.09666223
0.09663306
0.09659788
0.09655428
0.0964977
0.09641807
0.09629002
0.0960426
0.09546014
0.09382936
0.08848277
0.06913786
0.01399452
0.09706668
0.09708978
0.09711742
0.09712448
0.09712449
0.09711833
0.09710811
0.09709559
0.09708185
0.09706754
0.09705302
0.09703852
0.09702415
0.09700996
0.096996
0.09698228
0.0969688
0.09695557
0.09694261
0.09692993
0.09691755
0.09690547
0.09689372
0.09688229
0.09687117
0.09686034
0.09684971
0.09683918
0.09682862
0.09681785
0.09680668
0.09679486
0.09678212
0.09676815
0.09675256
0.09673489
0.09671457
0.09669089
0.09666283
0.09662895
0.09658687
0.09653205
0.09645453
0.09632902
0.09608474
0.09550608
0.09387869
0.0885283
0.06914515
0.01399704
0.0970668
0.09709002
0.09711806
0.09712565
0.09712633
0.09712093
0.09711153
0.09709986
0.09708701
0.09707359
0.09706
0.09704645
0.09703304
0.09701984
0.09700689
0.09699419
0.09698176
0.09696959
0.09695769
0.09694608
0.09693474
0.09692368
0.09691292
0.09690243
0.0968922
0.09688217
0.09687227
0.09686243
0.09685251
0.09684235
0.09683178
0.09682058
0.0968085
0.09679523
0.09678042
0.09676363
0.09674432
0.09672179
0.09669505
0.09666269
0.09662237
0.09656961
0.09649452
0.09637198
0.09613136
0.09555713
0.09393379
0.08857934
0.06915293
0.01399994
0.09706695
0.09709027
0.09711876
0.09712694
0.09712836
0.09712378
0.09711526
0.09710451
0.09709259
0.09708014
0.09706752
0.09705495
0.09704254
0.09703036
0.09701843
0.09700678
0.0969954
0.09698429
0.09697345
0.09696289
0.09695258
0.09694254
0.09693276
0.09692321
0.09691387
0.09690468
0.09689558
0.09688648
0.09687728
0.09686783
0.09685797
0.09684749
0.09683618
0.09682375
0.09680986
0.09679411
0.09677596
0.09675475
0.09672953
0.09669892
0.09666061
0.09661023
0.09653795
0.09641882
0.09618246
0.09561341
0.09399489
0.0886362
0.0691611
0.01400326
0.09706712
0.09709057
0.09711956
0.09712839
0.0971306
0.0971269
0.09711931
0.09710952
0.09709859
0.09708714
0.09707554
0.09706399
0.09705262
0.09704148
0.0970306
0.09701999
0.09700967
0.09699961
0.09698983
0.0969803
0.09697103
0.096962
0.09695319
0.09694458
0.09693614
0.09692782
0.09691955
0.09691126
0.09690284
0.09689417
0.0968851
0.09687546
0.09686502
0.09685354
0.0968407
0.09682612
0.09680929
0.09678958
0.09676607
0.09673743
0.09670142
0.09665373
0.09658467
0.09646948
0.09623803
0.09567503
0.09406228
0.08869926
0.06916952
0.01400705
0.09706736
0.09709095
0.09712048
0.09713001
0.09713305
0.09713027
0.09712366
0.09711488
0.09710497
0.09709456
0.09708401
0.09707352
0.09706321
0.09705313
0.09704331
0.09703377
0.09702451
0.09701551
0.09700676
0.09699827
0.09699001
0.09698197
0.09697413
0.09696647
0.09695894
0.0969515
0.09694409
0.09693665
0.09692907
0.09692124
0.09691304
0.09690431
0.09689484
0.09688442
0.09687274
0.09685944
0.09684408
0.09682602
0.09680442
0.09677799
0.09674455
0.09669991
0.09663451
0.09652383
0.09629807
0.09574215
0.09413634
0.08876903
0.06917799
0.01401141
0.09706774
0.09709148
0.09712161
0.09713185
0.09713575
0.09713391
0.09712829
0.09712053
0.09711167
0.09710233
0.09709285
0.09708344
0.09707422
0.09706522
0.09705649
0.09704802
0.09703981
0.09703186
0.09702415
0.09701668
0.09700943
0.09700237
0.09699549
0.09698876
0.09698215
0.09697561
0.09696908
0.09696251
0.0969558
0.09694887
0.0969416
0.09693384
0.09692541
0.09691612
0.09690569
0.0968938
0.09688002
0.09686377
0.09684426
0.09682026
0.09678969
0.09674846
0.0966872
0.09658168
0.09636252
0.09581492
0.09421752
0.08884617
0.06918627
0.01401645
0.09706824
0.09709217
0.097123
0.09713398
0.09713872
0.0971378
0.09713314
0.0971264
0.09711859
0.09711032
0.09710194
0.09709363
0.09708551
0.09707761
0.09706996
0.09706256
0.09705542
0.09704851
0.09704183
0.09703537
0.0970291
0.09702302
0.09701709
0.09701129
0.09700558
0.09699994
0.0969943
0.09698862
0.09698282
0.09697681
0.0969705
0.09696375
0.09695642
0.09694832
0.09693922
0.09692882
0.09691673
0.09690243
0.09688518
0.09686383
0.0968364
0.09679896
0.09674237
0.09664273
0.09643121
0.09589346
0.09430636
0.08893154
0.06919402
0.01402233
0.09706858
0.09709279
0.09712461
0.09713642
0.09714194
0.09714184
0.09713809
0.09713231
0.09712553
0.09711834
0.09711105
0.09710386
0.09709684
0.09709004
0.09708348
0.09707716
0.09707107
0.09706519
0.09705953
0.09705406
0.09704876
0.09704363
0.09703863
0.09703374
0.09702894
0.09702418
0.09701943
0.09701464
0.09700975
0.09700468
0.09699934
0.09699364
0.09698744
0.09698058
0.09697285
0.096964
0.09695369
0.09694144
0.09692659
0.09690809
0.09688408
0.0968508
0.0967994
0.09670646
0.09650382
0.0959778
0.0944035
0.08902626
0.06920078
0.01402931
0.09707033
0.09709302
0.09712606
0.09713898
0.09714528
0.09714586
0.09714286
0.09713796
0.09713216
0.09712601
0.09711981
0.09711372
0.09710781
0.09710212
0.09709664
0.09709138
0.09708633
0.09708148
0.0970768
0.0970723
0.09706795
0.09706374
0.09705964
0.09705564
0.09705172
0.09704783
0.09704395
0.09704004
0.09703605
0.09703191
0.09702756
0.0970229
0.09701784
0.09701223
0.0970059
0.09699864
0.09699015
0.09698003
0.09696768
0.09695218
0.09693181
0.09690304
0.09685738
0.09677199
0.09657966
0.0960677
0.09450956
0.08913178
0.06920591
0.01403774
0.09710278
0.0970978
0.09712722
0.09714125
0.09714835
0.09714939
0.09714694
0.09714277
0.09713786
0.0971327
0.09712757
0.09712258
0.09711777
0.09711317
0.09710876
0.09710454
0.09710051
0.09709664
0.09709292
0.09708935
0.09708591
0.09708259
0.09707936
0.09707621
0.09707313
0.09707008
0.09706704
0.09706398
0.09706086
0.09705763
0.09705424
0.09705061
0.09704666
0.09704228
0.09703734
0.09703166
0.09702501
0.09701703
0.09700724
0.09699482
0.09697825
0.09695427
0.09691483
0.09683787
0.09665745
0.09616245
0.09462498
0.08924989
0.06920848
0.01404821
0.09742382
0.09715022
0.09713201
0.09714277
0.0971503
0.09715151
0.09714935
0.09714574
0.0971416
0.09713739
0.09713328
0.09712936
0.09712563
0.09712208
0.09711871
0.0971155
0.09711243
0.09710951
0.0971067
0.09710401
0.09710143
0.09709894
0.09709652
0.09709418
0.09709188
0.09708962
0.09708737
0.09708512
0.09708282
0.09708045
0.09707796
0.09707531
0.09707242
0.09706923
0.09706563
0.09706147
0.09705659
0.09705071
0.09704345
0.0970341
0.09702138
0.09700232
0.09696946
0.0969017
0.09673487
0.09626028
0.09474962
0.08938262
0.06920719
0.01406171
0.09997441
0.09739944
0.09714937
0.09714216
0.09714927
0.09715028
0.0971483
0.09714517
0.09714174
0.0971384
0.09713526
0.09713236
0.09712965
0.09712711
0.09712471
0.09712244
0.09712028
0.09711822
0.09711625
0.09711437
0.09711257
0.09711083
0.09710916
0.09710754
0.09710596
0.09710441
0.09710288
0.09710135
0.09709979
0.0970982
0.09709654
0.09709478
0.09709286
0.09709075
0.09708837
0.09708563
0.09708239
0.09707847
0.09707357
0.09706716
0.09705814
0.09704393
0.09701772
0.09695967
0.09680794
0.09635756
0.09488159
0.08953164
0.06920025
0.01408004
0.09974428
0.0972551
0.09710973
0.09712718
0.09714216
0.09714276
0.0971412
0.09713891
0.09713628
0.09713376
0.09713153
0.09712955
0.09712777
0.09712613
0.0971246
0.09712316
0.09712179
0.09712048
0.09711924
0.09711806
0.09711693
0.09711584
0.0971148
0.0971138
0.09711283
0.09711189
0.09711096
0.09711005
0.09710913
0.0971082
0.09710724
0.09710622
0.09710514
0.09710395
0.09710261
0.09710107
0.09709925
0.09709703
0.0970942
0.09709036
0.09708466
0.0970749
0.09705497
0.09700651
0.09687064
0.09644763
0.09501482
0.08969495
0.06918273
0.01410659
0.09925869
0.09711107
0.09709188
0.09710978
0.0971494
0.09713202
0.09712719
0.09712602
0.09712454
0.09712289
0.09712144
0.09712024
0.09711922
0.09711832
0.09711749
0.09711671
0.09711597
0.09711526
0.09711459
0.09711394
0.09711333
0.09711275
0.0971122
0.09711167
0.09711117
0.09711069
0.09711022
0.09710977
0.09710934
0.0971089
0.09710847
0.09710802
0.09710755
0.09710706
0.0971065
0.09710588
0.09710513
0.0971042
0.09710296
0.09710115
0.09709808
0.09709192
0.09707731
0.09703735
0.09691638
0.09652073
0.09513335
0.08985189
0.06914781
0.01415008
0.09525059
0.0960798
0.09711085
0.09725514
0.09739951
0.09715034
0.09709784
0.09709302
0.09709278
0.09709214
0.09709142
0.09709087
0.09709046
0.09709012
0.09708981
0.09708951
0.09708923
0.09708895
0.09708868
0.09708843
0.09708819
0.09708796
0.09708775
0.09708755
0.09708737
0.09708721
0.09708706
0.09708693
0.09708682
0.09708672
0.09708664
0.09708657
0.09708652
0.09708649
0.09708646
0.09708644
0.09708642
0.09708637
0.09708622
0.09708579
0.09708457
0.09708101
0.09707029
0.09703677
0.09692723
0.09655121
0.09518642
0.089919
0.06930917
0.01425184
0.09709571
0.09525091
0.09925779
0.09974364
0.09997395
0.09742374
0.09710279
0.09707034
0.09706857
0.09706822
0.09706771
0.09706731
0.09706705
0.09706685
0.09706668
0.09706651
0.09706635
0.09706619
0.09706604
0.09706589
0.09706575
0.09706562
0.0970655
0.09706539
0.09706529
0.09706521
0.09706514
0.09706508
0.09706504
0.09706502
0.09706501
0.09706502
0.09706506
0.09706511
0.09706519
0.09706529
0.09706541
0.09706554
0.09706564
0.09706555
0.09706481
0.09706201
0.09705255
0.0970211
0.09691391
0.09652981
0.09509666
0.08966021
0.0716434
0.01477814
0.09375147
0.09480694
0.09598228
0.09570678
0.09562264
0.09607158
0.09630719
0.09635752
0.09635995
0.09635935
0.09636064
0.09636252
0.09636426
0.09636567
0.09636681
0.09636774
0.09636852
0.09636919
0.09636978
0.09637032
0.09637081
0.09637128
0.09637173
0.09637217
0.0963726
0.09637304
0.09637349
0.09637396
0.09637447
0.09637503
0.09637565
0.09637635
0.09637717
0.09637812
0.09637925
0.0963806
0.09638222
0.09638415
0.09638635
0.09638858
0.09638981
0.09638666
0.0963682
0.09629931
0.09606537
0.09528515
0.09267814
0.08407031
0.05904789
0.01475129
0.09454409
0.09564279
0.09628079
0.09618882
0.09615491
0.09633711
0.09642599
0.09644053
0.09643912
0.09643879
0.09643999
0.09644145
0.09644264
0.09644351
0.09644411
0.09644453
0.09644481
0.09644501
0.09644516
0.09644526
0.09644534
0.09644541
0.09644548
0.09644555
0.09644563
0.09644573
0.09644585
0.09644599
0.09644618
0.0964464
0.09644668
0.09644702
0.09644744
0.09644796
0.0964486
0.09644939
0.09645035
0.0964515
0.09645275
0.09645378
0.09645345
0.09644806
0.09642609
0.09635103
0.09610596
0.09530972
0.09270515
0.08415776
0.05792
0.01433877
0.09517386
0.09608812
0.09641216
0.09642042
0.09642434
0.09646717
0.09648369
0.09648446
0.09648389
0.09648472
0.09648601
0.09648707
0.09648772
0.09648801
0.09648805
0.09648791
0.09648766
0.09648734
0.09648698
0.0964866
0.09648621
0.09648583
0.09648546
0.09648511
0.09648479
0.09648449
0.09648423
0.096484
0.09648381
0.09648366
0.09648354
0.09648347
0.09648344
0.09648347
0.09648355
0.0964837
0.09648391
0.09648415
0.09648429
0.09648387
0.09648157
0.09647326
0.09644645
0.0963624
0.09609901
0.09526488
0.09258561
0.08389925
0.05744573
0.01415816
0.09584314
0.09629263
0.09645147
0.09649546
0.09651615
0.09653224
0.0965391
0.09654205
0.09654424
0.09654603
0.09654718
0.09654766
0.0965476
0.09654715
0.09654645
0.09654559
0.09654464
0.09654363
0.0965426
0.09654158