/*--------------------------------*- C++ -*----------------------------------*\
| =========                 |                                                 |
| \\      /  F ield         | OpenFOAM: The Open Source CFD Toolbox           |
|  \\    /   O peration     | Version:  2506                                  |
|   \\  /    A nd           | Website:  www.openfoam.com                      |
|    \\/     M anipulation  |                                                 |
\*---------------------------------------------------------------------------*/
FoamFile
{
    version     2.0;
    format      ascii;
    arch        "LSB;label=32;scalar=64";
    class       volScalarField;
    location    "90/airRegion";
    object      nut;
}
// * * * * * * * * * * * * * * * * * * * * * * * * * * * * * * * * * * * * * //

dimensions      [0 2 -1 0 0 0 0];

internalField   nonuniform List<scalar> 
260661
(
0.09587811
0.09803017
0.09965634
0.09949551
0.09943595
0.1001239
0.1004507
0.1005245
0.1005329
0.1005329
0.1005329
0.100533
0.1005332
0.1005332
0.1005332
0.1005331
0.100533
0.1005328
0.1005327
0.1005325
0.1005324
0.1005323
0.1005321
0.100532
0.1005319
0.1005318
0.1005317
0.1005316
0.1005316
0.1005316
0.1005315
0.1005316
0.1005316
0.1005316
0.1005317
0.1005318
0.1005319
0.100532
0.1005321
0.100532
0.1005313
0.1005283
0.1005185
0.1004856
0.1003736
0.0999708
0.09845697
0.09260756
0.07204813
0.01476949
0.09709205
0.09916885
0.1001898
0.1000952
0.1001286
0.1004029
0.1005288
0.1005555
0.1005576
0.1005572
0.1005572
0.1005573
0.1005573
0.1005572
0.1005571
0.1005568
0.1005566
0.1005563
0.1005561
0.1005558
0.1005556
0.1005553
0.1005551
0.1005549
0.1005547
0.1005545
0.1005543
0.1005542
0.100554
0.1005539
0.1005538
0.1005537
0.1005537
0.1005536
0.1005536
0.1005536
0.1005536
0.1005535
0.1005533
0.1005529
0.1005516
0.1005479
0.1005367
0.1005018
0.1003878
0.09999606
0.09857334
0.09307876
0.07161078
0.01474572
0.09794188
0.09985017
0.1003613
0.100444
0.1004938
0.1005609
0.1005867
0.1005904
0.1005895
0.1005886
0.100588
0.1005874
0.1005868
0.1005862
0.1005855
0.1005847
0.100584
0.1005833
0.1005825
0.1005818
0.1005812
0.1005805
0.1005799
0.1005793
0.1005787
0.1005782
0.1005777
0.1005772
0.1005767
0.1005763
0.1005759
0.1005754
0.1005749
0.1005744
0.1005739
0.1005733
0.1005725
0.1005716
0.1005703
0.1005684
0.1005653
0.1005589
0.1005437
0.1005022
0.1003766
0.09996598
0.0985266
0.09305045
0.07160042
0.01465452
0.09959487
0.1002333
0.1004847
0.1005562
0.1005846
0.1005998
0.1006033
0.1006025
0.100601
0.1005996
0.1005982
0.1005968
0.1005954
0.1005939
0.1005924
0.100591
0.1005895
0.1005881
0.1005868
0.1005854
0.1005842
0.1005829
0.1005817
0.1005806
0.1005795
0.1005785
0.1005775
0.1005765
0.1005756
0.1005746
0.1005737
0.1005727
0.1005716
0.1005704
0.1005691
0.1005676
0.1005658
0.1005635
0.1005606
0.1005567
0.1005508
0.1005408
0.1005201
0.1004699
0.100329
0.09989054
0.09840582
0.09289505
0.07165182
0.01461015
0.09929664
0.1001445
0.1005067
0.1005848
0.1006035
0.1006095
0.1006101
0.1006087
0.1006067
0.1006044
0.100602
0.1005995
0.100597
0.1005945
0.100592
0.1005896
0.1005873
0.100585
0.1005828
0.1005806
0.1005786
0.1005766
0.1005747
0.1005728
0.100571
0.1005693
0.1005677
0.1005661
0.1005645
0.1005629
0.1005613
0.1005595
0.1005577
0.1005556
0.1005533
0.1005506
0.1005474
0.1005434
0.1005385
0.1005319
0.1005227
0.100508
0.1004809
0.1004208
0.1002636
0.09979693
0.09826793
0.09272686
0.07167181
0.01458267
0.1001113
0.1004163
0.1005646
0.1005982
0.1006087
0.1006122
0.100612
0.1006099
0.1006069
0.1006035
0.1005998
0.1005961
0.1005924
0.1005888
0.1005852
0.1005817
0.1005783
0.100575
0.1005718
0.1005686
0.1005656
0.1005627
0.1005599
0.1005572
0.1005546
0.1005522
0.1005498
0.1005474
0.1005451
0.1005427
0.1005403
0.1005378
0.100535
0.1005319
0.1005284
0.1005243
0.1005195
0.1005136
0.1005063
0.1004968
0.1004838
0.1004641
0.1004302
0.10036
0.1001872
0.09969555
0.09813073
0.09257222
0.07167921
0.01456366
0.1004595
0.1005331
0.1005856
0.1006017
0.1006095
0.1006119
0.1006108
0.1006076
0.1006035
0.1005988
0.1005938
0.1005888
0.1005839
0.100579
0.1005742
0.1005695
0.1005649
0.1005604
0.1005561
0.1005519
0.1005478
0.1005439
0.1005401
0.1005364
0.1005329
0.1005296
0.1005264
0.1005232
0.1005201
0.1005169
0.1005137
0.1005102
0.1005065
0.1005023
0.1004975
0.100492
0.1004855
0.1004775
0.1004677
0.1004551
0.1004382
0.1004135
0.1003728
0.1002931
0.1001063
0.09959347
0.09800092
0.09243416
0.0716805
0.01454964
0.100526
0.1005548
0.1005891
0.1006018
0.1006086
0.10061
0.1006078
0.1006034
0.100598
0.1005919
0.1005857
0.1005794
0.1005731
0.1005669
0.1005608
0.1005548
0.100549
0.1005433
0.1005378
0.1005323
0.1005271
0.1005221
0.1005172
0.1005125
0.100508
0.1005038
0.1004996
0.1004956
0.1004917
0.1004877
0.1004836
0.1004792
0.1004745
0.1004692
0.1004632
0.1004562
0.1004479
0.1004378
0.1004255
0.1004098
0.100389
0.1003595
0.1003124
0.1002241
0.1000249
0.09949457
0.09788062
0.09231119
0.07167774
0.01453875
0.1005325
0.1005569
0.1005891
0.100601
0.1006069
0.1006072
0.1006038
0.1005982
0.1005914
0.1005841
0.1005765
0.1005688
0.1005612
0.1005537
0.1005463
0.100539
0.1005318
0.1005248
0.100518
0.1005113
0.1005048
0.1004985
0.1004925
0.1004867
0.1004812
0.1004759
0.1004709
0.1004661
0.1004613
0.1004565
0.1004515
0.1004463
0.1004406
0.1004342
0.1004269
0.1004185
0.1004085
0.1003964
0.1003816
0.1003629
0.1003385
0.1003044
0.1002514
0.1001554
0.09994556
0.09940069
0.09777005
0.09220128
0.07167232
0.01452999
0.1005329
0.1005571
0.1005887
0.1005999
0.1006049
0.100604
0.1005994
0.1005925
0.1005844
0.1005758
0.1005668
0.1005578
0.1005489
0.10054
0.1005312
0.1005226
0.1005141
0.1005057
0.1004975
0.1004894
0.1004816
0.100474
0.1004667
0.1004598
0.1004532
0.1004469
0.100441
0.1004353
0.1004297
0.1004242
0.1004184
0.1004124
0.1004057
0.1003984
0.1003899
0.1003801
0.1003684
0.1003544
0.1003373
0.1003158
0.100288
0.1002497
0.1001915
0.1000885
0.09986958
0.09931261
0.09766874
0.09210258
0.0716652
0.01452274
0.100533
0.1005573
0.1005882
0.1005987
0.1006026
0.1006007
0.1005949
0.1005867
0.1005774
0.1005674
0.1005572
0.1005468
0.1005365
0.1005263
0.1005162
0.1005062
0.1004962
0.1004864
0.1004768
0.1004673
0.100458
0.100449
0.1004404
0.1004322
0.1004245
0.1004172
0.1004104
0.1004039
0.1003976
0.1003914
0.1003849
0.1003781
0.1003707
0.1003624
0.1003528
0.1003417
0.1003286
0.1003128
0.1002935
0.1002695
0.1002385
0.1001964
0.1001334
0.1000245
0.0997977
0.09923058
0.09757609
0.09201363
0.07165706
0.01451662
0.1005332
0.1005574
0.1005877
0.1005974
0.1006004
0.1005974
0.1005904
0.1005811
0.1005705
0.1005592
0.1005477
0.1005361
0.1005245
0.1005129
0.1005014
0.10049
0.1004786
0.1004673
0.1004561
0.1004451
0.1004343
0.1004238
0.1004138
0.1004043
0.1003954
0.1003871
0.1003794
0.1003722
0.1003653
0.1003584
0.1003515
0.100344
0.1003359
0.1003268
0.1003163
0.100304
0.1002895
0.1002721
0.1002508
0.1002245
0.1001907
0.1001452
0.100078
0.09996384
0.09973029
0.09915461
0.09749147
0.09193329
0.07164838
0.01451139
0.1005332
0.1005574
0.1005872
0.1005962
0.1005983
0.1005942
0.1005861
0.1005756
0.1005638
0.1005514
0.1005387
0.1005258
0.1005129
0.1005
0.1004871
0.1004742
0.1004613
0.1004485
0.1004357
0.1004231
0.1004107
0.1003986
0.1003871
0.1003762
0.1003661
0.1003568
0.1003484
0.1003405
0.1003331
0.1003258
0.1003184
0.1003105
0.1003018
0.100292
0.1002807
0.1002674
0.1002517
0.1002328
0.1002098
0.1001813
0.100145
0.1000965
0.1000257
0.09990691
0.09966754
0.09908459
0.09741432
0.09186068
0.0716395
0.01450686
0.1005333
0.1005573
0.1005867
0.1005949
0.1005962
0.1005912
0.100582
0.1005705
0.1005576
0.100544
0.1005301
0.100516
0.1005018
0.1004876
0.1004734
0.100459
0.1004447
0.1004303
0.1004159
0.1004015
0.1003874
0.1003737
0.1003605
0.1003482
0.1003369
0.1003267
0.1003175
0.1003091
0.1003013
0.1002937
0.100286
0.1002778
0.1002687
0.1002584
0.1002464
0.1002323
0.1002155
0.1001953
0.1001708
0.1001404
0.1001019
0.1000507
0.09997669
0.09985393
0.09960954
0.09902039
0.09734421
0.09179513
0.0716307
0.01450292
0.1005332
0.1005572
0.1005861
0.1005938
0.1005943
0.1005884
0.1005782
0.1005657
0.1005517
0.1005371
0.100522
0.1005068
0.1004914
0.1004759
0.1004604
0.1004446
0.1004288
0.1004128
0.1003967
0.1003806
0.1003647
0.1003492
0.1003344
0.1003206
0.1003081
0.1002969
0.100287
0.1002783
0.1002702
0.1002625
0.1002547
0.1002463
0.100237
0.1002263
0.1002138
0.100199
0.1001813
0.10016
0.1001341
0.1001021
0.1000617
0.1000081
0.09993127
0.09980505
0.09955633
0.09896187
0.09728074
0.09173611
0.07162216
0.01449949
0.1005332
0.100557
0.1005855
0.1005927
0.1005925
0.1005857
0.1005748
0.1005613
0.1005464
0.1005307
0.1005146
0.1004983
0.1004818
0.1004651
0.1004482
0.1004311
0.1004138
0.1003962
0.1003784
0.1003606
0.1003428
0.1003255
0.100309
0.1002937
0.10028
0.1002679
0.1002575
0.1002485
0.1002404
0.1002327
0.1002249
0.1002165
0.1002071
0.1001961
0.1001832
0.1001678
0.1001494
0.1001271
0.1001
0.1000666
0.1000245
0.09996892
0.0998896
0.09976039
0.09950793
0.09890892
0.09722365
0.09168326
0.07161405
0.0144965
0.1005331
0.1005569
0.100585
0.1005917
0.1005908
0.1005834
0.1005716
0.1005573
0.1005415
0.1005249
0.1005079
0.1004905
0.1004729
0.1004551
0.100437
0.1004186
0.1003999
0.1003808
0.1003614
0.1003418
0.1003222
0.1003031
0.1002849
0.1002681
0.1002532
0.1002403
0.1002295
0.1002203
0.1002122
0.1002047
0.100197
0.1001887
0.1001793
0.1001682
0.100155
0.1001391
0.10012
0.100097
0.1000689
0.1000342
0.09999059
0.09993326
0.09985183
0.09972002
0.09946435
0.09886145
0.09717271
0.09163626
0.07160647
0.0144939
0.100533
0.1005567
0.1005845
0.1005907
0.1005893
0.1005813
0.1005688
0.1005537
0.1005371
0.1005197
0.1005018
0.1004836
0.100465
0.1004462
0.100427
0.1004074
0.1003873
0.1003668
0.1003458
0.1003246
0.1003033
0.1002825
0.1002627
0.1002444
0.1002284
0.1002148
0.1002035
0.1001943
0.1001863
0.100179
0.1001716
0.1001634
0.100154
0.1001428
0.1001294
0.1001132
0.1000935
0.1000698
0.1000408
0.1000051
0.09996017
0.09990132
0.09981807
0.09968404
0.09942561
0.0988194
0.09712775
0.0915949
0.07159952
0.01449167
0.1005329
0.1005565
0.1005841
0.1005899
0.100588
0.1005794
0.1005663
0.1005506
0.1005333
0.1005152
0.1004965
0.1004775
0.1004581
0.1004383
0.1004181
0.1003975
0.1003763
0.1003545
0.1003321
0.1003094
0.1002866
0.1002643
0.1002429
0.1002234
0.1002063
0.1001921
0.1001806
0.1001713
0.1001635
0.1001563
0.1001491
0.1001411
0.1001317
0.1001204
0.1001068
0.1000903
0.1000702
0.1000458
0.100016
0.0999794
0.09993339
0.09987323
0.09978842
0.0996525
0.09939173
0.09878273
0.09708866
0.09155901
0.07159328
0.01448976
0.1005328
0.1005564
0.1005837
0.1005892
0.1005869
0.1005778
0.1005642
0.1005479
0.1005301
0.1005113
0.100492
0.1004723
0.1004521
0.1004316
0.1004107
0.1003891
0.1003669
0.1003441
0.1003206
0.1002967
0.1002726
0.100249
0.1002264
0.1002058
0.1001879
0.1001731
0.1001613
0.1001519
0.1001442
0.1001372
0.10013
0.1001221
0.1001127
0.1001014
0.1000875
0.1000706
0.1000501
0.1000251
0.09999473
0.09995732
0.09991038
0.09984911
0.09976297
0.09962546
0.09936273
0.09875139
0.09705533
0.09152847
0.07158781
0.01448817
0.1005327
0.1005562
0.1005834
0.1005886
0.100586
0.1005765
0.1005625
0.1005457
0.1005274
0.1005081
0.1004883
0.100468
0.1004473
0.1004262
0.1004046
0.1003824
0.1003595
0.1003359
0.1003115
0.1002867
0.1002617
0.1002372
0.1002137
0.1001923
0.1001738
0.1001585
0.1001464
0.1001369
0.1001291
0.100122
0.1001149
0.1001068
0.1000974
0.1000858
0.1000717
0.1000545
0.1000336
0.1000081
0.09997709
0.09993899
0.09989124
0.09982903
0.0997418
0.09960296
0.09933863
0.09872538
0.0970277
0.09150317
0.07158316
0.01448687
0.1005327
0.1005561
0.1005831
0.1005882
0.1005853
0.1005755
0.1005611
0.100544
0.1005253
0.1005056
0.1004854
0.1004647
0.1004436
0.1004221
0.1004
0.1003774
0.100354
0.1003299
0.1003051
0.1002798
0.1002543
0.1002291
0.1002052
0.1001833
0.1001644
0.1001487
0.1001363
0.1001265
0.1001185
0.1001112
0.1001038
0.1000956
0.1000858
0.100074
0.1000596
0.100042
0.1000206
0.09999472
0.09996318
0.09992449
0.09987606
0.09981309
0.09972495
0.09958506
0.09931943
0.09870467
0.09700572
0.09148306
0.07157938
0.01448586
0.1005326
0.100556
0.1005829
0.1005878
0.1005847
0.1005747
0.1005601
0.1005427
0.1005237
0.1005039
0.1004833
0.1004624
0.1004411
0.1004193
0.100397
0.1003741
0.1003506
0.1003263
0.1003013
0.1002759
0.1002503
0.1002251
0.1002011
0.1001791
0.1001599
0.100144
0.1001313
0.1001211
0.1001127
0.100105
0.1000972
0.1000885
0.1000783
0.1000661
0.1000512
0.1000333
0.1000115
0.0999851
0.0999531
0.09991389
0.09986491
0.09980132
0.09971249
0.09957177
0.09930517
0.09868926
0.09698936
0.09146809
0.07157648
0.01448511
0.1005326
0.100556
0.1005828
0.1005876
0.1005844
0.1005742
0.1005594
0.1005419
0.1005228
0.1005028
0.1004821
0.1004611
0.1004396
0.1004178
0.1003955
0.1003726
0.1003492
0.100325
0.1003003
0.1002751
0.1002498
0.100225
0.1002012
0.1001795
0.1001603
0.1001443
0.1001312
0.1001206
0.1001115
0.1001032
0.1000948
0.1000855
0.1000748
0.1000621
0.1000467
0.1000283
0.1000061
0.0999793
0.09994688
0.09990726
0.09985784
0.09979378
0.09970443
0.09956314
0.09929586
0.09867917
0.09697862
0.09145823
0.07157451
0.01448463
0.1005325
0.1005559
0.1005827
0.1005875
0.1005842
0.100574
0.1005592
0.1005416
0.1005225
0.1005024
0.1004818
0.1004608
0.1004394
0.1004177
0.1003955
0.1003729
0.1003497
0.100326
0.1003018
0.1002773
0.1002527
0.1002285
0.1002054
0.1001841
0.1001652
0.1001492
0.1001358
0.1001246
0.1001148
0.1001058
0.1000966
0.1000866
0.1000752
0.1000619
0.1000461
0.1000271
0.1000045
0.09997734
0.09994457
0.09990461
0.09985488
0.09979051
0.09970084
0.0995592
0.09929154
0.09867444
0.09697354
0.09145352
0.07157351
0.0144844
0.1005325
0.1005559
0.1005827
0.1005875
0.1005842
0.1005741
0.1005593
0.1005418
0.1005227
0.1005028
0.1004823
0.1004614
0.1004403
0.1004188
0.100397
0.1003748
0.1003522
0.1003291
0.1003057
0.100282
0.1002583
0.1002351
0.1002129
0.1001923
0.1001739
0.1001579
0.1001443
0.1001325
0.1001221
0.1001122
0.1001022
0.1000915
0.1000794
0.1000655
0.1000491
0.1000297
0.1000067
0.0999792
0.09994616
0.09990597
0.09985605
0.09979153
0.09970174
0.09956001
0.09929228
0.09867512
0.09697418
0.09145407
0.07157357
0.01448443
0.1005325
0.100556
0.1005828
0.1005876
0.1005845
0.1005744
0.1005598
0.1005424
0.1005236
0.1005038
0.1004836
0.100463
0.1004422
0.1004211
0.1003998
0.1003782
0.1003563
0.1003341
0.1003116
0.1002889
0.1002664
0.1002443
0.1002232
0.1002035
0.1001856
0.1001698
0.100156
0.1001438
0.1001327
0.100122
0.1001113
0.1000998
0.100087
0.1000725
0.1000556
0.1000358
0.1000125
0.09998474
0.09995154
0.09991125
0.09986129
0.09979679
0.09970709
0.09956551
0.09929802
0.09868119
0.09698053
0.09145985
0.07157469
0.01448472
0.1005326
0.100556
0.100583
0.1005879
0.1005849
0.100575
0.1005606
0.1005435
0.1005249
0.1005055
0.1004856
0.1004654
0.1004451
0.1004246
0.1004039
0.100383
0.1003619
0.1003406
0.1003192
0.1002977
0.1002764
0.1002556
0.1002356
0.1002169
0.1001997
0.1001841
0.1001702
0.1001577
0.100146
0.1001347
0.1001232
0.1001111
0.1000977
0.1000826
0.1000654
0.1000452
0.1000217
0.09999383
0.09996057
0.09992032
0.09987048
0.09980618
0.09971678
0.09957561
0.09930867
0.09869254
0.09699246
0.09147071
0.07157676
0.01448526
0.1005326
0.1005561
0.1005832
0.1005883
0.1005855
0.1005759
0.1005618
0.1005451
0.1005269
0.1005078
0.1004884
0.1004687
0.1004489
0.1004291
0.1004091
0.100389
0.1003688
0.1003486
0.1003283
0.100308
0.100288
0.1002685
0.1002497
0.1002319
0.1002154
0.1002003
0.1001865
0.1001737
0.1001616
0.1001498
0.1001378
0.1001251
0.1001112
0.1000958
0.1000782
0.1000578
0.1000342
0.1000063
0.09997313
0.09993306
0.09988351
0.0998196
0.09973072
0.09959023
0.09932416
0.0987091
0.09700991
0.09148661
0.07157973
0.01448606
0.1005327
0.1005562
0.1005834
0.1005888
0.1005863
0.1005771
0.1005634
0.100547
0.1005293
0.1005108
0.1004919
0.1004728
0.1004537
0.1004345
0.1004153
0.1003962
0.1003769
0.1003577
0.1003386
0.1003196
0.1003009
0.1002826
0.100265
0.1002482
0.1002325
0.1002179
0.1002042
0.1001914
0.1001791
0.1001669
0.1001545
0.1001415
0.1001273
0.1001116
0.1000938
0.1000734
0.1000498
0.100022
0.09998908
0.09994936
0.09990027
0.09983696
0.09974883
0.09960929
0.09934443
0.09873083
0.09703287
0.09150756
0.07158359
0.01448713
0.1005328
0.1005564
0.1005838
0.1005894
0.1005873
0.1005785
0.1005652
0.1005494
0.1005322
0.1005143
0.1004961
0.1004777
0.1004593
0.1004409
0.1004226
0.1004043
0.1003861
0.100368
0.10035
0.1003323
0.1003148
0.1002978
0.1002813
0.1002655
0.1002506
0.1002365
0.1002232
0.1002105
0.1001981
0.1001858
0.1001732
0.10016
0.1001456
0.1001298
0.100112
0.1000917
0.1000683
0.1000408
0.1000083
0.09996909
0.09992066
0.09985817
0.09977104
0.09963274
0.09936943
0.09875771
0.09706134
0.09153358
0.07158828
0.01448847
0.1005329
0.1005565
0.1005842
0.1005902
0.1005885
0.1005802
0.1005675
0.1005523
0.1005357
0.1005184
0.1005009
0.1004832
0.1004656
0.1004481
0.1004307
0.1004134
0.1003962
0.1003793
0.1003624
0.1003459
0.1003296
0.1003137
0.1002984
0.1002836
0.1002695
0.1002561
0.1002432
0.1002307
0.1002185
0.1002063
0.1001937
0.1001804
0.1001661
0.1001504
0.1001327
0.1001127
0.1000896
0.1000626
0.1000306
0.09999213
0.09994456
0.09988312
0.09979725
0.0996605
0.09939913
0.09878973
0.09709535
0.09156471
0.07159378
0.01449011
0.100533
0.1005567
0.1005846
0.100591
0.1005898
0.1005821
0.10057
0.1005555
0.1005396
0.1005231
0.1005063
0.1004895
0.1004727
0.1004561
0.1004397
0.1004234
0.1004073
0.1003914
0.1003757
0.1003603
0.1003452
0.1003305
0.1003163
0.1003025
0.1002892
0.1002764
0.1002641
0.100252
0.1002401
0.1002281
0.1002157
0.1002026
0.1001885
0.100173
0.1001557
0.1001361
0.1001135
0.1000871
0.1000559
0.1000184
0.09997187
0.09991172
0.0998274
0.09969253
0.0994335
0.0988269
0.09713495
0.09160104
0.07160003
0.01449204
0.1005331
0.1005569
0.1005852
0.100592
0.1005914
0.1005843
0.1005729
0.1005591
0.100544
0.1005283
0.1005124
0.1004964
0.1004806
0.1004649
0.1004494
0.1004342
0.1004191
0.1004044
0.1003898
0.1003756
0.1003616
0.100348
0.1003348
0.100322
0.1003096
0.1002976
0.1002859
0.1002743
0.1002629
0.1002512
0.1002391
0.1002264
0.1002126
0.1001976
0.1001808
0.1001617
0.1001398
0.1001143
0.1000841
0.1000476
0.1000025
0.09994387
0.09986139
0.09972877
0.09947251
0.09886925
0.09718023
0.0916427
0.07160696
0.0144943
0.1005332
0.1005571
0.1005858
0.1005931
0.1005931
0.1005867
0.1005761
0.1005631
0.1005489
0.1005341
0.100519
0.100504
0.1004891
0.1004744
0.10046
0.1004458
0.1004318
0.1004181
0.1004047
0.1003916
0.1003787
0.1003662
0.100354
0.1003422
0.1003307
0.1003195
0.1003085
0.1002976
0.1002866
0.1002755
0.1002639
0.1002517
0.1002385
0.100224
0.1002078
0.1001895
0.1001685
0.100144
0.1001149
0.1000798
0.1000362
0.09997945
0.09989915
0.09976916
0.09951616
0.09891682
0.09723132
0.09168986
0.07161451
0.01449692
0.1005334
0.1005574
0.1005864
0.1005943
0.100595
0.1005894
0.1005797
0.1005676
0.1005542
0.1005404
0.1005263
0.1005122
0.1004983
0.1004847
0.1004713
0.1004581
0.1004452
0.1004326
0.1004203
0.1004083
0.1003965
0.1003851
0.1003739
0.1003631
0.1003525
0.1003421
0.1003318
0.1003216
0.1003114
0.1003008
0.1002899
0.1002783
0.1002658
0.100252
0.1002367
0.1002193
0.1001993
0.100176
0.1001483
0.1001148
0.100073
0.1000183
0.09994058
0.09981365
0.09956444
0.0989697
0.09728839
0.09174272
0.07162257
0.01449992
0.1005335
0.1005577
0.1005872
0.1005956
0.1005971
0.1005923
0.1005835
0.1005724
0.10056
0.1005471
0.1005341
0.100521
0.1005082
0.1004956
0.1004832
0.1004711
0.1004594
0.1004479
0.1004366
0.1004257
0.100415
0.1004046
0.1003945
0.1003846
0.1003749
0.1003654
0.100356
0.1003466
0.100337
0.1003272
0.100317
0.1003062
0.1002944
0.1002816
0.1002672
0.1002509
0.1002321
0.1002101
0.100184
0.1001523
0.1001126
0.1000604
0.09998556
0.09986217
0.09961736
0.09902799
0.09735167
0.09180161
0.07163104
0.01450335
0.1005337
0.100558
0.100588
0.1005971
0.1005994
0.1005956
0.1005877
0.1005776
0.1005662
0.1005544
0.1005424
0.1005304
0.1005186
0.1005071
0.1004958
0.1004848
0.1004741
0.1004637
0.1004536
0.1004437
0.1004341
0.1004248
0.1004156
0.1004067
0.100398
0.1003894
0.1003808
0.1003722
0.1003635
0.1003545
0.1003451
0.1003351
0.1003243
0.1003124
0.1002991
0.100284
0.1002666
0.1002462
0.1002218
0.1001922
0.1001549
0.1001055
0.100034
0.09991464
0.09967493
0.09909182
0.09742147
0.09186693
0.07163975
0.01450728
0.1005339
0.1005584
0.1005889
0.1005988
0.1006019
0.1005991
0.1005922
0.1005831
0.1005729
0.1005621
0.1005511
0.1005403
0.1005296
0.1005192
0.100509
0.1004991
0.1004895
0.1004802
0.1004711
0.1004623
0.1004538
0.1004455
0.1004373
0.1004294
0.1004216
0.1004139
0.1004062
0.1003985
0.1003907
0.1003826
0.1003741
0.100365
0.1003552
0.1003444
0.1003323
0.1003185
0.1003026
0.1002839
0.1002616
0.1002342
0.1001995
0.1001533
0.1000856
0.09997093
0.09973711
0.09916134
0.09749817
0.09193919
0.07164853
0.0145118
0.1005343
0.1005589
0.1005901
0.1006007
0.1006047
0.1006028
0.100597
0.100589
0.1005798
0.1005701
0.1005603
0.1005506
0.100541
0.1005317
0.1005226
0.1005139
0.1005054
0.1004971
0.1004891
0.1004814
0.1004739
0.1004666
0.1004595
0.1004525
0.1004456
0.1004389
0.1004321
0.1004253
0.1004184
0.1004112
0.1004036
0.1003956
0.1003869
0.1003772
0.1003664
0.1003541
0.1003399
0.100323
0.1003028
0.100278
0.1002463
0.1002036
0.1001401
0.1000309
0.09980386
0.0992367
0.09758225
0.09201908
0.07165711
0.01451702
0.1005347
0.1005595
0.1005915
0.1006029
0.1006078
0.1006069
0.100602
0.1005951
0.100587
0.1005784
0.1005697
0.1005611
0.1005527
0.1005445
0.1005366
0.1005289
0.1005215
0.1005144
0.1005075
0.1005008
0.1004943
0.100488
0.1004818
0.1004758
0.1004699
0.1004641
0.1004582
0.1004523
0.1004463
0.1004401
0.1004336
0.1004266
0.100419
0.1004106
0.1004012
0.1003904
0.1003779
0.1003631
0.1003452
0.1003231
0.1002947
0.1002559
0.1001973
0.1000941
0.09987501
0.09931805
0.09767427
0.09210751
0.07166514
0.01452311
0.1005349
0.10056
0.1005931
0.1006053
0.1006111
0.100611
0.1006071
0.1006012
0.1005942
0.1005867
0.1005792
0.1005717
0.1005644
0.1005574
0.1005506
0.100544
0.1005377
0.1005317
0.1005258
0.1005201
0.1005146
0.1005093
0.1005041
0.1004991
0.1004941
0.1004892
0.1004843
0.1004793
0.1004742
0.100469
0.1004635
0.1004575
0.1004511
0.100444
0.100436
0.1004268
0.1004162
0.1004035
0.1003881
0.1003689
0.1003441
0.1003096
0.1002564
0.1001601
0.09995021
0.0994054
0.09777488
0.09220562
0.07167214
0.01453033
0.100536
0.1005598
0.1005943
0.1006079
0.1006145
0.1006152
0.1006121
0.100607
0.100601
0.1005946
0.1005882
0.1005819
0.1005758
0.1005699
0.1005642
0.1005588
0.1005536
0.1005485
0.1005437
0.100539
0.1005345
0.1005301
0.1005259
0.1005218
0.1005177
0.1005137
0.1005097
0.1005056
0.1005015
0.1004972
0.1004927
0.1004879
0.1004826
0.1004768
0.1004702
0.1004627
0.1004539
0.1004434
0.1004307
0.1004146
0.1003935
0.1003637
0.1003164
0.100228
0.1000288
0.09949852
0.09788473
0.0923149
0.07167745
0.01453906
0.1005675
0.1005634
0.1005948
0.1006099
0.1006175
0.1006188
0.1006163
0.100612
0.1006069
0.1006016
0.1005963
0.1005911
0.1005861
0.1005813
0.1005768
0.1005724
0.1005682
0.1005642
0.1005604
0.1005567
0.1005531
0.1005497
0.1005463
0.1005431
0.1005399
0.1005367
0.1005336
0.1005304
0.1005272
0.1005238
0.1005203
0.1005165
0.1005125
0.1005079
0.1005028
0.1004969
0.10049
0.1004818
0.1004716
0.1004588
0.1004416
0.1004168
0.1003759
0.1002962
0.1001093
0.09959664
0.09800426
0.09243721
0.07168011
0.01454991
0.1008936
0.100614
0.1005981
0.1006107
0.1006192
0.1006208
0.1006187
0.100615
0.1006108
0.1006064
0.1006022
0.1005981
0.1005943
0.1005906
0.1005871
0.1005838
0.1005806
0.1005776
0.1005747
0.1005719
0.1005692
0.1005666
0.1005641
0.1005617
0.1005593
0.100557
0.1005546
0.1005523
0.1005499
0.1005475
0.1005449
0.1005421
0.1005391
0.1005358
0.1005321
0.1005278
0.1005227
0.1005167
0.1005091
0.1004995
0.1004863
0.1004665
0.1004325
0.1003623
0.1001895
0.09969794
0.0981333
0.09257462
0.07167873
0.01456389
0.1035168
0.100863
0.1006123
0.1006085
0.1006175
0.1006192
0.1006175
0.1006144
0.1006109
0.1006075
0.1006042
0.1006012
0.1005984
0.1005958
0.1005933
0.100591
0.1005887
0.1005866
0.1005845
0.1005826
0.1005807
0.1005789
0.1005772
0.1005755
0.1005739
0.1005723
0.1005707
0.1005691
0.1005675
0.1005658
0.1005641
0.1005623
0.1005603
0.1005581
0.1005557
0.1005528
0.1005495
0.1005454
0.1005403
0.1005337
0.1005243
0.1005096
0.1004825
0.1004223
0.1002651
0.09979861
0.0982698
0.09272865
0.07167127
0.01458287
0.1032349
0.1006938
0.1005636
0.1005896
0.1006085
0.1006107
0.1006099
0.1006078
0.1006052
0.1006027
0.1006004
0.1005983
0.1005965
0.1005948
0.1005932
0.1005917
0.1005903
0.1005889
0.1005876
0.1005864
0.1005853
0.1005841
0.1005831
0.100582
0.100581
0.10058
0.1005791
0.1005781
0.1005772
0.1005762
0.1005752
0.1005742
0.100573
0.1005718
0.1005704
0.1005688
0.1005669
0.1005646
0.1005617
0.1005577
0.1005518
0.1005417
0.1005211
0.1004708
0.10033
0.09989164
0.0984071
0.09289632
0.0716513
0.01461031
0.1026246
0.1005002
0.1005286
0.1005636
0.1006123
0.1005981
0.1005948
0.1005942
0.100593
0.1005914
0.1005899
0.1005887
0.1005876
0.1005867
0.1005858
0.100585
0.1005843
0.1005835
0.1005828
0.1005822
0.1005815
0.1005809
0.1005804
0.1005798
0.1005793
0.1005788
0.1005783
0.1005778
0.1005774
0.1005769
0.1005765
0.100576
0.1005755
0.100575
0.1005745
0.1005738
0.100573
0.1005721
0.1005708
0.1005689
0.1005657
0.1005593
0.1005442
0.1005027
0.1003772
0.09996661
0.09852736
0.09305125
0.07159993
0.01465463
0.09787917
0.09925705
0.1005
0.1006938
0.100863
0.1006141
0.1005634
0.1005598
0.10056
0.1005595
0.1005588
0.1005583
0.1005578
0.1005575
0.1005572
0.1005569
0.1005566
0.1005563
0.100556
0.1005557
0.1005555
0.1005553
0.100555
0.1005548
0.1005547
0.1005545
0.1005543
0.1005542
0.1005541
0.100554
0.1005539
0.1005538
0.1005538
0.1005537
0.1005537
0.1005537
0.1005537
0.1005536
0.1005535
0.100553
0.1005517
0.100548
0.1005369
0.100502
0.100388
0.09999636
0.09857373
0.09307949
0.07161041
0.01474575
0.09574762
0.09787949
0.1026236
0.1032343
0.1035163
0.1008935
0.1005675
0.100536
0.1005349
0.1005347
0.1005343
0.1005339
0.1005336
0.1005334
0.1005332
0.1005331
0.1005329
0.1005327
0.1005326
0.1005324
0.1005323
0.1005321
0.100532
0.1005319
0.1005318
0.1005317
0.1005316
0.1005316
0.1005315
0.1005315
0.1005315
0.1005315
0.1005316
0.1005316
0.1005317
0.1005318
0.1005319
0.1005321
0.1005322
0.1005321
0.1005313
0.1005284
0.1005185
0.1004857
0.1003737
0.09997095
0.09845717
0.0926077
0.07204796
0.01476946
0.09451376
0.09718605
0.09824295
0.09876441
0.09887107
0.09943077
0.09972081
0.09979056
0.09979882
0.0997999
0.09980172
0.09980381
0.09980565
0.09980713
0.09980831
0.09980927
0.09981008
0.09981077
0.09981139
0.09981194
0.09981246
0.09981294
0.09981341
0.09981386
0.09981431
0.09981476
0.09981523
0.09981572
0.09981624
0.09981682
0.09981746
0.09981819
0.09981904
0.09982003
0.0998212
0.0998226
0.09982428
0.09982627
0.09982855
0.09983085
0.0998321
0.09982877
0.09980942
0.09973727
0.09949203
0.09867244
0.09592474
0.08681039
0.06025614
0.01498287
0.09653772
0.09848413
0.09936528
0.09946618
0.099502
0.09973658
0.09985373
0.09987928
0.0998815
0.09988233
0.09988393
0.09988554
0.09988682
0.09988773
0.09988835
0.09988878
0.09988908
0.09988929
0.09988943
0.09988954
0.09988963
0.0998897
0.09988977
0.09988984
0.09988992
0.09989002
0.09989015
0.0998903
0.09989049
0.09989072
0.09989101
0.09989136
0.0998918
0.09989233
0.099893
0.09989382
0.09989481
0.099896
0.0998973
0.09989836
0.09989799
0.09989236
0.09986943
0.09979114
0.0995355
0.09870481
0.09598785
0.08708053
0.05982579
0.01482569
0.0976239
0.09916611
0.09971291
0.09979834
0.09983141
0.09989415
0.09992179
0.09992736
0.0999286
0.09993009
0.09993164
0.0999328
0.0999335
0.09993381
0.09993385
0.0999337
0.09993344
0.09993311
0.09993274
0.09993235
0.09993195
0.09993155
0.09993117
0.09993081
0.09993047
0.09993017
0.09992989
0.09992966
0.09992946
0.0999293
0.09992918
0.0999291
0.09992908
0.0999291
0.09992919
0.09992934
0.09992956
0.09992981
0.09992995
0.09992951
0.09992711
0.09991848
0.09989061
0.09980324
0.09952958
0.09866326
0.09588229
0.08687416
0.05947024
0.0146612
0.09891057
0.09957014
0.09983102
0.09991289
0.09994824
0.09997234
0.09998352
0.0999885
0.09999157
0.09999373
0.09999503
0.09999557
0.09999552
0.09999506
0.09999433
0.09999344
0.09999245
0.09999141
0.09999035
0.09998928
0.09998823
0.09998721
0.09998622
0.09998527
0.09998438
0.09998352
0.09998272
0.09998196
0.09998124
0.09998055
0.09997988
0.09997923
0.09997857
0.0999779
0.0999772
0.09997645
0.0999756
0.09997456
0.0999731
0.09997062
0.09996545
0.09995281
0.09991852
0.0998197
0.09952376
0.09861352
0.09575556
0.08667378
0.05948426
0.01456612
0.0988043
0.09952715
0.09984452
0.09994833
0.09998917
0.1000119
0.1000251
0.1000327
0.100037
0.1000392
0.1000399
0.1000396
0.1000386
0.1000372
0.1000355
0.1000337
0.1000318
0.1000298
0.1000279
0.100026
0.1000241
0.1000223
0.1000205
0.1000188
0.1000172
0.1000156
0.1000142
0.1000127
0.1000114
0.10001
0.1000087
0.1000073
0.1000058
0.1000043
0.1000026
0.1000007
0.09999847
0.09999579
0.09999231
0.09998728
0.09997874
0.09996134
0.09991977
0.09980877
0.09949097
0.09854174
0.09562681
0.08653266
0.0596173
0.01450325
0.09943171
0.09975378
0.09989879
0.09997107
0.1000113
0.1000367
0.1000523
0.1000612
0.1000657
0.1000674
0.1000672
0.1000658
0.1000637
0.1000612
0.1000584
0.1000555
0.1000525
0.1000495
0.1000465
0.1000436
0.1000407
0.1000379
0.1000353
0.1000327
0.1000302
0.1000279
0.1000256
0.1000234
0.1000213
0.1000192
0.1000171
0.1000148
0.1000125
0.1000099
0.1000071
0.1000038
0.1000001
0.09999551
0.09998973
0.09998181
0.09996951
0.09994697
0.09989791
0.09977512
0.09943781
0.09845729
0.09550478
0.08642936
0.05976602
0.01445801
0.09973124
0.09985938
0.0999215
0.09998224
0.1000247
0.1000523
0.1000691
0.1000781
0.1000821
0.1000828
0.1000815
0.1000789
0.1000756
0.1000719
0.1000679
0.1000637
0.1000596
0.1000554
0.1000513
0.1000472
0.1000432
0.1000394
0.1000356
0.100032
0.1000286
0.1000254
0.1000223
0.1000193
0.1000163
0.1000134
0.1000104
0.1000073
0.100004
0.1000004
0.09999629
0.09999162
0.09998616
0.09997959
0.09997137
0.0999604
0.0999442
0.09991647
0.09986011
0.09972646
0.09937244
0.09836752
0.09539087
0.08634665
0.05990156
0.01442363
0.09979286
0.09987937
0.09992651
0.09998807
0.1000328
0.1000615
0.1000783
0.1000867
0.1000898
0.1000894
0.1000869
0.1000831
0.1000785
0.1000735
0.1000682
0.1000628
0.1000573
0.1000518
0.1000464
0.1000411
0.1000359