/*--------------------------------*- C++ -*----------------------------------*\
| =========                 |                                                 |
| \\      /  F ield         | OpenFOAM: The Open Source CFD Toolbox           |
|  \\    /   O peration     | Version:  2506                                  |
|   \\  /    A nd           | Website:  www.openfoam.com                      |
|    \\/     M anipulation  |                                                 |
\*---------------------------------------------------------------------------*/
FoamFile
{
    version     2.0;
    format      ascii;
    arch        "LSB;label=32;scalar=64";
    class       volScalarField;
    location    "500/panel";
    object      T;
}
// * * * * * * * * * * * * * * * * * * * * * * * * * * * * * * * * * * * * * //

dimensions      [0 0 0 1 0 0 0];

internalField   nonuniform List<scalar> 
32872
(
299.6627
299.671
299.6909
299.6909
299.6909
299.6909
299.6904
299.6901
299.5075
299.6711
299.691
299.6794
299.6992
299.6993
299.7193
299.6992
299.6993
299.7193
299.7193
299.6993
299.6988
299.7193
299.7188
299.6984
299.5154
299.7185
299.5335
299.691
299.691
299.6993
299.7193
299.6993
299.7193
299.7193
299.7193
299.7193
299.7193
299.7193
299.7188
299.7193
299.7188
299.7185
299.533
299.7185
299.5352
299.691
299.691
299.6993
299.7193
299.6993
299.7193
299.7193
299.7193
299.7193
299.7194
299.7193
299.7188
299.7194
299.7189
299.7185
299.5345
299.7185
299.5336
299.691
299.691
299.6993
299.7193
299.6994
299.7194
299.7194
299.7194
299.7194
299.7194
299.7194
299.7189
299.7194
299.7189
299.7185
299.5342
299.7185
299.533
299.691
299.6911
299.6994
299.7194
299.6994
299.7195
299.7194
299.7194
299.7195
299.7195
299.7194
299.7189
299.7195
299.719
299.7185
299.5326
299.7186
299.5346
299.6911
299.6907
299.6994
299.7195
299.699
299.719
299.7195
299.7195
299.719
299.719
299.7195
299.719
299.719
299.7185
299.7186
299.5344
299.7181
299.5341
299.6903
299.5122
299.6986
299.7186
299.5189
299.5406
299.7186
299.7186
299.5392
299.5387
299.7186
299.7181
299.5384
299.5391
299.7177
299.533
299.5387
299.361
299.5033
299.5063
299.3564
299.5121
299.6899
299.5316
299.5309
299.6903
299.5315
299.5309
299.6909
299.5325
299.5331
299.6909
299.5331
299.5347
299.691
299.5321
299.5336
299.691
299.5326
299.5341
299.6713
299.5141
299.3612
299.6631
299.5066
299.5137
299.69
299.5316
299.6904
299.5311
299.5324
299.6983
299.6984
299.7174
299.6987
299.7183
299.7178
299.6987
299.7184
299.7178
299.7187
299.7187
299.7182
299.6993
299.7183
299.7183
299.6993
299.7184
299.7183
299.7187
299.7193
299.7187
299.7188
299.7193
299.7187
299.6993
299.7184
299.7184
299.6993
299.7179
299.7184
299.7188
299.7194
299.7188
299.7183
299.7194
299.7188
299.6796
299.7175
299.6986
299.6714
299.5321
299.6902
299.7179
299.6995
299.699
299.5321
299.6912
299.6906
299.5317
299.691
299.5323
299.691
299.5339
299.5326
299.7184
299.6993
299.7184
299.7188
299.7193
299.7188
299.6993
299.7184
299.7184
299.7193
299.7188
299.7188
299.7193
299.7193
299.7193
299.7193
299.7193
299.7193
299.7193
299.7193
299.7193
299.7193
299.7193
299.7193
299.7194
299.7193
299.7194
299.7194
299.7188
299.7194
299.7193
299.7194
299.7194
299.7188
299.7194
299.7194
299.6995
299.7185
299.6995
299.6912
299.5324
299.6912
299.7185
299.6995
299.6995
299.5327
299.6912
299.6912
299.5331
299.691
299.5322
299.691
299.5332
299.5308
299.7184
299.6993
299.7184
299.7188
299.7193
299.7188
299.6993
299.7184
299.7184
299.7193
299.7188
299.7188
299.7193
299.7193
299.7193
299.7193
299.7193
299.7193
299.7193
299.7194
299.7193
299.7194
299.7194
299.7193
299.7194
299.7194
299.7194
299.7194
299.7189
299.7194
299.7194
299.7194
299.7194
299.7189
299.7194
299.7194
299.6995
299.7185
299.6995
299.6912
299.5327
299.6911
299.7185
299.6995
299.6995
299.5311
299.6912
299.6911
299.5335
299.691
299.5335
299.691
299.533
299.5344
299.7184
299.6994
299.7184
299.7188
299.7194
299.7188
299.6994
299.7184
299.7184
299.7194
299.7188
299.7188
299.7194
299.7194
299.7194
299.7194
299.7194
299.7194
299.7194
299.7194
299.7194
299.7194
299.7194
299.7194
299.7194
299.7194
299.7194
299.7194
299.7189
299.7194
299.7194
299.7194
299.7194
299.7189
299.7194
299.7194
299.6995
299.7185
299.6995
299.6912
299.5338
299.6912
299.7185
299.6996
299.6995
299.5333
299.6912
299.6912
299.5324
299.6911
299.534
299.6911
299.5332
299.5348
299.7184
299.6994
299.7185
299.7188
299.7194
299.7188
299.6994
299.7185
299.7185
299.7194
299.7189
299.7189
299.7194
299.7194
299.7194
299.7194
299.7194
299.7194
299.7194
299.7195
299.7194
299.7194
299.7195
299.7194
299.7194
299.7194
299.7195
299.7194
299.7189
299.7195
299.7195
299.7195
299.7195
299.7189
299.7195
299.7195
299.6996
299.7185
299.6996
299.6912
299.5345
299.6913
299.7185
299.6997
299.6996
299.5343
299.6914
299.6913
299.532
299.6912
299.5325
299.6912
299.5329
299.533
299.7185
299.6995
299.7185
299.7189
299.7195
299.7189
299.6995
299.718
299.7185
299.7195
299.7184
299.7189
299.7195
299.7195
299.7195
299.7195
299.7195
299.7195
299.7195
299.719
299.7195
299.7195
299.719
299.7195
299.7195
299.7195
299.7195
299.7195
299.719
299.7195
299.7195
299.719
299.7196
299.719
299.719
299.7196
299.6997
299.7186
299.6997
299.6914
299.5331
299.6914
299.7186
299.6992
299.6997
299.5329
299.6908
299.6914
299.5325
299.672
299.513
299.664
299.366
299.507
299.7176
299.6803
299.6993
299.718
299.7002
299.6996
299.6723
299.5381
299.6912
299.6922
299.5389
299.6916
299.7186
299.7002
299.7003
299.7186
299.7002
299.7003
299.6922
299.54
299.6922
299.6922
299.5401
299.6922
299.7187
299.7002
299.7003
299.7187
299.6997
299.7003
299.6922
299.539
299.6922
299.6916
299.5385
299.6922
299.6988
299.6993
299.6805
299.6905
299.5153
299.6722
299.6912
299.5194
299.6724
299.5072
299.5112
299.6641
299.6627
299.6191
299.6193
299.7204
299.5761
299.6914
299.6915
299.717
299.6273
299.7372
299.6847
299.7081
299.6409
299.7461
299.7244
299.6469
299.6908
299.7537
299.647
299.7244
299.7536
299.7244
299.6469
299.7537
299.6909
299.7244
299.647
299.7537
299.7245
299.6472
299.6909
299.7537
299.6471
299.7245
299.7537
299.7246
299.6472
299.7537
299.691
299.7246
299.6473
299.7538
299.7244
299.6467
299.6909
299.7533
299.6471
299.7241
299.7536
299.7214
299.6464
299.7525
299.6871
299.7233
299.6434
299.7506
299.6178
299.4632
299.5977
299.5631
299.5207
299.5547
299.6463
299.7171
299.6275
299.7372
299.6848
299.7082
299.6411
299.7462
299.7246
299.6909
299.6472
299.7538
299.6472
299.7537
299.7246
299.772
299.7541
299.6931
299.6931
299.7069
299.763
299.7631
299.7796
299.6992
299.7706
299.7131
299.7706
299.713
299.7796
299.7797
299.6993
299.7707
299.7131
299.7706
299.7131
299.7797
299.7873
299.7193
299.7193
299.7873
299.7192
299.7873
299.7873
299.7796
299.7706
299.6992
299.7131
299.7131
299.7706
299.7797
299.7797
299.6993
299.7706
299.7131
299.7706
299.7131
299.7797
299.7873
299.7193
299.7873
299.7193
299.7873
299.7193
299.7873
299.7873
299.7193
299.7193
299.7873
299.7193
299.7873
299.7873
299.7797
299.7706
299.6993
299.7131
299.7131
299.7706
299.7797
299.7795
299.6993
299.7702
299.7126
299.7705
299.7131
299.7793
299.7873
299.7193
299.7873
299.7193
299.7873
299.7193
299.7873
299.7872
299.7188
299.7193
299.7869
299.7192
299.7869
299.7872
299.7765
299.7694
299.6954
299.7122
299.7092
299.7675
299.7784
299.6715
299.6059
299.5712
299.5267
299.5844
299.6627
299.6192
299.7841
299.7184
299.7861
299.7154
299.7861
299.7154
299.7841
299.6789
299.5336
299.6254
299.5904
299.5903
299.6253
299.6789
299.7246
299.6472
299.7538
299.691
299.7246
299.6472
299.7538
299.7247
299.691
299.6473
299.7538
299.6472
299.7538
299.7247
299.7797
299.7707
299.7131
299.6993
299.7131
299.7797
299.7707
299.7873
299.7193
299.7873
299.7193
299.7873
299.7193
299.7873
299.7797
299.6993
299.7707
299.7131
299.7707
299.7131
299.7797
299.7873
299.7193
299.7193
299.7873
299.7193
299.7873
299.7873
299.7873
299.7873
299.7193
299.7193
299.7193
299.7873
299.7873
299.7873
299.7193
299.7873
299.7193
299.7873
299.7193
299.7873
299.7873
299.7193
299.7873
299.7193
299.7873
299.7193
299.7873
299.7873
299.7193
299.7193
299.7873
299.7193
299.7873
299.7873
299.7873
299.7873
299.7194
299.7193
299.7194
299.7873
299.7873
299.7872
299.7193
299.7869
299.7188
299.7872
299.7193
299.7869
299.7873
299.7193
299.7873
299.7194
299.7873
299.7194
299.7873
299.7872
299.7188
299.7193
299.7869
299.7193
299.7869
299.7872
299.7841
299.7861
299.7154
299.7185
299.7154
299.7841
299.7861
299.679
299.6254
299.5904
299.5344
299.5905
299.679
299.6255
299.7841
299.7185
299.7861
299.7154
299.7861
299.7154
299.7841
299.6789
299.5342
299.6251
299.5905
299.5905
299.6251
299.6788
299.7247
299.6474
299.7538
299.691
299.7247
299.6473
299.7538
299.7246
299.691
299.6473
299.7538
299.6472
299.7538
299.7246
299.7797
299.7707
299.7131
299.6993
299.7131
299.7797
299.7707
299.7873
299.7193
299.7873
299.7193
299.7873
299.7193
299.7873
299.7797
299.6993
299.7707
299.7131
299.7707
299.7131
299.7797
299.7873
299.7193
299.7193
299.7873
299.7193
299.7873
299.7873
299.7873
299.7873
299.7193
299.7193
299.7193
299.7873
299.7873
299.7873
299.7193
299.7873
299.7193
299.7873
299.7193
299.7873
299.7873
299.7193
299.7873
299.7194
299.7873
299.7193
299.7873
299.7873
299.7194
299.7194
299.7873
299.7194
299.7873
299.7873
299.7873
299.7873
299.7194
299.7193
299.7194
299.7873
299.7873
299.7872
299.7193
299.7869
299.7188
299.7872
299.7193
299.7869
299.7873
299.7194
299.7873
299.7194
299.7873
299.7194
299.7873
299.7872
299.7189
299.7193
299.7869
299.7193
299.7869
299.7872
299.7841
299.7861
299.7154
299.7185
299.7154
299.7841
299.7861
299.6787
299.6251
299.5904
299.5324
299.5901
299.6788
299.625
299.7841
299.7185
299.7861
299.7154
299.7861
299.7154
299.7841
299.6786
299.5326
299.6252
299.5901
299.5899
299.6248
299.6787
299.7247
299.6473
299.7538
299.691
299.7246
299.6473
299.7538
299.7247
299.691
299.6473
299.7538
299.6473
299.7538
299.7247
299.7797
299.7707
299.7131
299.6994
299.7132
299.7797
299.7707
299.7873
299.7193
299.7873
299.7194
299.7873
299.7193
299.7873
299.7797
299.6994
299.7707
299.7132
299.7707
299.7132
299.7797
299.7873
299.7194
299.7193
299.7874
299.7193
299.7874
299.7873
299.7874
299.7873
299.7194
299.7194
299.7194
299.7873
299.7874
299.7873
299.7194
299.7873
299.7194
299.7873
299.7194
299.7873
299.7874
299.7194
299.7874
299.7194
299.7874
299.7194
299.7874
299.7874
299.7194
299.7194
299.7874
299.7194
299.7874
299.7874
299.7873
299.7873
299.7194
299.7194
299.7194
299.7873
299.7873
299.7872
299.7193
299.7869
299.7189
299.7872
299.7193
299.7869
299.7874
299.7194
299.7874
299.7194
299.7874
299.7194
299.7874
299.7872
299.7189
299.7194
299.7869
299.7193
299.7869
299.7872
299.7841
299.7861
299.7154
299.7185
299.7154
299.7841
299.7861
299.6787
299.6252
299.5901
299.5318
299.5901
299.6787
299.6249
299.7842
299.7185
299.7861
299.7155
299.7861
299.7155
299.7842
299.6786
299.533
299.6248
299.5902
299.5901
299.6249
299.6786
299.7247
299.6473
299.7538
299.6911
299.7247
299.6473
299.7538
299.7246
299.6911
299.6473
299.7538
299.6473
299.7538
299.7246
299.7797
299.7707
299.7132
299.6994
299.7132
299.7797
299.7707
299.7873
299.7193
299.7874
299.7194
299.7873
299.7194
299.7874
299.7797
299.6994
299.7707
299.7132
299.7707
299.7132
299.7797
299.7874
299.7194
299.7194
299.7874
299.7194
299.7874
299.7874
299.7874
299.7874
299.7194
299.7194
299.7194
299.7874
299.7874
299.7874
299.7194
299.7874
299.7194
299.7874
299.7194
299.7874
299.7874
299.7194
299.7874
299.7195
299.7874
299.7194
299.7874
299.7874
299.7195
299.7195
299.7874
299.7195
299.7874
299.7874
299.7874
299.7874
299.7194
299.7194
299.7194
299.7874
299.7874
299.7872
299.7194
299.7869
299.7189
299.7872
299.7194
299.7869
299.7874
299.7195
299.7874
299.7195
299.7874
299.7195
299.7874
299.7873
299.719
299.7194
299.787
299.7194
299.787
299.7873
299.7842
299.7861
299.7155
299.7185
299.7155
299.7842
299.7861
299.6786
299.6248
299.5902
299.5321
299.5901
299.6786
299.6248
299.7842
299.7186
299.7862
299.7155
299.7862
299.7155
299.7842
299.6788
299.5337
299.6252
299.5905
299.5905
299.6251
299.6789
299.7247
299.6473
299.7538
299.6911
299.7246
299.6474
299.7538
299.7247
299.6911
299.647
299.7535
299.6474
299.7538
299.7244
299.7798
299.7707
299.7132
299.6995
299.7133
299.7798
299.7707
299.7874
299.7194
299.7874
299.7195
299.7874
299.7194
299.7874
299.7797
299.6994
299.7704
299.7128
299.7707
299.7132
299.7794
299.7873
299.7194
299.7189
299.787
299.7194
299.7873
299.787
299.7874
299.7874
299.7195
299.7195
299.7195
299.7874
299.7874
299.7874
299.7195
299.7874
299.7195
299.7874
299.7195
299.7874
299.7873
299.7194
299.787
299.719
299.7873
299.7194
299.787
299.7873
299.7195
299.719
299.787
299.7194
299.7873
299.787
299.7874
299.7874
299.7195
299.7195
299.7195
299.7874
299.7874
299.7873
299.7194
299.787
299.719
299.7873
299.7195
299.787
299.7873
299.7195
299.787
299.719
299.7873
299.7195
299.787
299.7872
299.7189
299.719
299.7866
299.7194
299.7869
299.7869
299.7842
299.7862
299.7155
299.7186
299.7156
299.7842
299.7862
299.679
299.6252
299.5906
299.5359
299.5907
299.6789
299.6253
299.7841
299.7185
299.7858
299.715
299.7861
299.7155
299.7838
299.6788
299.5357
299.6247
299.5899
299.5905
299.6253
299.6785
299.7217
299.6466
299.7527
299.6874
299.7236
299.6437
299.7508
299.6209
299.6004
299.4695
299.5683
299.5262
299.5576
299.6492
299.7767
299.7696
299.7124
299.6957
299.7095
299.7786
299.7677
299.7843
299.7186
299.7862
299.7157
299.7862
299.7156
299.7843
299.6744
299.6085
299.5763
299.5326
299.5896
299.6656
299.622
299.6818
299.6279
299.5395
299.5961
299.5958
299.6278
299.6819
299.7843
299.7862
299.7186
299.7157
299.7157
299.7862
299.7843
299.7843
299.7186
299.7862
299.7157
299.7862
299.7157
299.7843
299.682
299.6279
299.5961
299.5402
299.5961
299.682
299.6279
299.6821
299.6283
299.5382
299.5959
299.5961
299.6284
299.6821
299.7843
299.7862
299.7186
299.7157
299.7157
299.7862
299.7843
299.7842
299.7186
299.7858
299.7151
299.7861
299.7156
299.7839
299.682
299.6283
299.5959
299.5388
299.5959
299.6821
299.6282
299.6819
299.6276
299.54
299.5954
299.5959
299.6282
299.6816
299.7811
299.785
299.7147
299.7148
299.7117
299.783
299.7831
299.6758
299.6243
299.5895
299.5291
299.5865
299.6776
299.6214
299.6787
299.6271
299.595
299.5358
299.5919
299.6807
299.6238
299.5757
299.4445
299.4493
299.4142
299.5016
299.5042
299.535
299.5619
299.4031
299.4939
299.4938
299.6167
299.5963
299.462
299.5613
299.519
299.5535
299.6451
299.6169
299.5966
299.4634
299.5618
299.5193
299.5537
299.6454
299.6515
299.7085
299.6799
299.6799
299.5714
299.4059
299.4417
299.4418
299.4971
299.497
299.5312
299.6065
299.5579
299.5158
299.6347
299.6066
299.5582
299.5159
299.6347
299.6642
299.5844
299.5815
299.6661
299.6705
299.6045
299.5694
299.5256
299.6617
299.5828
299.618
299.7052
299.7251
299.6964
299.734
299.7213
299.6869
299.6461
299.7525
299.7233
299.6431
299.7505
299.6599
299.566
299.6511
299.5794
299.6748
299.5879
299.5275
299.6233
299.5849
299.6768
299.6202
299.7096
299.7403
299.7115
299.7383
299.6671
299.5849
299.5852
299.6669
299.6779
299.624
299.5326
299.5887
299.5888
299.6241
299.6779
299.7243
299.6908
299.6465
299.7533
299.7241
299.6469
299.7536
299.7126
299.7415
299.7126
299.7414
299.6778
299.5883
299.5323
299.6236
299.5887
299.6776
299.6241
299.6672
299.5852
299.5852
299.6672
299.7126
299.7411
299.7123
299.7414
299.6673
299.5855
299.5854
299.6673
299.6779
299.624
299.5887
299.5333
299.6779
299.5889
299.6241
299.7127
299.7415
299.7126
299.7415
299.7245
299.6909
299.6471
299.7537
299.7245
299.647
299.7537
299.6672
299.5852
299.6672
299.5853
299.678
299.589
299.5325
299.6242
299.5889
299.678
299.6242
299.7127
299.7415
299.7127
299.7415
299.6673
299.5855
299.5854
299.6673
299.6781
299.6245
299.5333
299.5891
299.589
299.6243
299.6781
299.7245
299.6909
299.6471
299.7537
299.7245
299.6471
299.7537
299.7127
299.7415
299.7127
299.7415
299.6781
299.589
299.5332
299.6242
299.589
299.678
299.6243
299.6673
299.5854
299.5854
299.6673
299.7127
299.7415
299.7127
299.7415
299.6675
299.5855
299.5857
299.6674
299.6782
299.6245
299.5891
299.533
299.6782
299.5892
299.6245
299.7128
299.7415
299.7128
299.7415
299.7246
299.691
299.6472
299.7538
299.7246
299.6473
299.7538
299.6675
299.5855
299.6674
299.5857
299.6782
299.5891
299.5339
299.6244
299.5892
299.6782
299.6245
299.7128
299.7415
299.7128
299.7415
299.6672
299.5855
299.5852
299.6673
299.6779
299.6239
299.5326
299.5884
299.5888
299.6243
299.6777
299.7245
299.6909
299.6472
299.7537
299.7245
299.6471
299.7537
299.7125
299.741
299.7122
299.7413
299.678
299.589
299.533
299.6244
299.5888
299.6781
299.6243
299.667
299.5848
299.5851
299.6667
299.7127
299.7415
299.7127
299.7414
299.66
299.5665
299.5796
299.6514
299.675
299.6236
299.5881
299.5285
299.6769
299.5852
299.6206
299.7096
299.7403
299.7115
299.7383
299.7171
299.6849
299.6278
299.7374
299.7083
299.6413
299.7462
299.6641
299.5844
299.666
299.5816
299.6708
299.57
299.5272
299.6051
299.5832
299.6621
299.6185
299.7053
299.7252
299.6966
299.734
299.6072
299.5585
299.5167
299.6351
299.5725
299.442
299.4425
299.4093
299.4986
299.4984
299.5323
299.6633
299.62
299.6197
299.7207
299.6918
299.577
299.692
299.6075
299.5597
299.5174
299.6357
299.6175
299.562
299.4644
299.597
299.5201
299.6457
299.5545
299.5631
299.4057
299.4954
299.4952
299.6521
299.7087
299.6802
299.6804
299.6644
299.585
299.582
299.6664
299.6708
299.6048
299.5699
299.5267
299.6619
299.5834
299.6183
299.7054
299.7251
299.6965
299.734
299.7215
299.687
299.6463
299.7525
299.7234
299.6432
299.7506
299.6601
299.5663
299.6512
299.5799
299.6751
299.5885
299.5287
299.6235
299.5855
299.6771
299.6205
299.7097
299.7404
299.7117
299.7384
299.6675
299.5854
299.6672
299.5859
299.7245
299.6909
299.6467
299.7534
299.7242
299.6471
299.7537
299.6782
299.6243
299.5332
299.5893
299.5894
299.6244
299.6782
299.7128
299.7416
299.7415
299.7129
299.6782
299.5889
299.6239
299.5332
299.6779
299.5894
299.6244
299.7128
299.7412
299.7125
299.7415
299.6675
299.5858
299.5859
299.6675
299.7685
299.7724
299.7704
299.7704
299.7597
299.7418
299.7507
299.7507
299.7764
299.6953
299.7694
299.7121
299.7091
299.7674
299.7784
299.7765
299.6953
299.7694
299.7121
299.7091
299.7675
299.7784
299.764
299.757
299.7551
299.766
299.7641
299.7571
299.7551
299.766
299.7809
299.7848
299.7143
299.7143
299.7112
299.7828
299.7829
299.7715
299.7732
299.7712
299.7735
299.7795
299.6991
299.7702
299.7125
299.7705
299.7792
299.713
299.7672
299.7582
299.7582
299.7672
299.7841
299.7153
299.7183
299.7861
299.786
299.7152
299.7841
299.7671
299.7578
299.7581
299.7668
299.784
299.7856
299.7147
299.7182
299.7837
299.7859
299.7152
299.7716
299.7736
299.7736
299.7716
299.7715
299.7732
299.7712
299.7735
299.7796
299.6992
299.7702
299.7125
299.7705
299.7793
299.713
299.7672
299.7583
299.7583
299.7673
299.7841
299.7153
299.7183
299.7861
299.7861
299.7152
299.7841
299.7671
299.7579
299.7582
299.7668
299.784
299.7856
299.7147
299.7183
299.7837
299.786
299.7152
299.7716
299.7736
299.7736
299.7717
299.7746
299.774
299.7743
299.7743
299.7872
299.7192
299.7187
299.7869
299.7869
299.7192
299.7872
299.7872
299.7192
299.7187
299.7869
299.7869
299.7192
299.7872
299.7748
299.7749
299.7748
299.7749
299.7871
299.7865
299.7186
299.7186
299.7868
299.7868
299.7191
299.7747
299.7744
299.7744
299.7747
299.7747
299.7745
299.7744
299.7748
299.7716
299.7736
299.7716
299.7736
299.7672
299.7582
299.7582
299.7672
299.7796
299.6992
299.7706
299.7131
299.7131
299.7706
299.7796
299.7841
299.7153
299.7861
299.7183
299.7153
299.7841
299.7861
299.7672
299.7582
299.7582
299.7672
299.7716
299.7736
299.7716
299.7736
299.7841
299.7861
299.7153
299.7183
299.7153
299.7841
299.7861
299.7716
299.7736
299.7716
299.7736
299.7796
299.6993
299.7706
299.7131
299.7706
299.7796
299.7131
299.7672
299.7582
299.7582
299.7672
299.7841
299.7153
299.7184
299.7861
299.7861
299.7153
299.7841
299.7672
299.7582
299.7582
299.7672
299.7841
299.7861
299.7153
299.7183
299.7841
299.7861
299.7153
299.7716
299.7736
299.7736
299.7716
299.7747
299.7744
299.7744
299.7747
299.7872
299.7192
299.7869
299.7187
299.7872
299.7869
299.7192
299.7748
299.7749
299.7749
299.7749
299.7873
299.7193
299.7193
299.7873
299.7873
299.7193
299.7873
299.7747
299.7744
299.7747
299.7744
299.7872
299.7869
299.7187
299.7192
299.7869
299.7872
299.7192
299.7748
299.7749
299.7748
299.7749
299.7747
299.7744
299.7744
299.7747
299.7872
299.7192
299.7187
299.7869
299.7869
299.7192
299.7872
299.7873
299.7193
299.7193
299.7873
299.7873
299.7193
299.7873
299.7748
299.7748
299.7748
299.7748
299.7872
299.7869
299.7187
299.7192
299.7869
299.7872
299.7192
299.7747
299.7744
299.7744
299.7747
299.7748
299.7748
299.7748
299.7748
299.7716
299.7736
299.7716
299.7736
299.7672
299.7582
299.7583
299.7672
299.7797
299.6993
299.7707
299.7131
299.7131
299.7707
299.7797
299.7841
299.7153
299.7861
299.7184
299.7153
299.7841
299.7861
299.7672
299.7583
299.7583
299.7672
299.7716
299.7736
299.7716
299.7736
299.7841
299.7861
299.7153
299.7184
299.7153
299.7841
299.7861
299.7716
299.7736
299.7716
299.7736
299.7796
299.6993
299.7706
299.7131
299.7706
299.7797
299.7131
299.7671
299.7578
299.7581
299.7668
299.784
299.7148
299.7183
299.7857
299.786
299.7152
299.7837
299.7672
299.7582
299.7582
299.7672
299.7841
299.7861
299.7153
299.7184
299.7841
299.7861
299.7153
299.7715
299.7732
299.7735
299.7712
299.7747
299.7744
299.7744
299.7747
299.7872
299.7192
299.7869
299.7188
299.7872
299.7869
299.7193
299.7748
299.7748
299.7748
299.7748
299.7873
299.7194
299.7193
299.7873
299.7873
299.7193
299.7873
299.7747
299.7744
299.7747
299.7744
299.7872
299.7869
299.7188
299.7193
299.7869
299.7872
299.7193
299.7748
299.7748
299.7748
299.7748
299.7747
299.7744
299.7744
299.7747
299.7871
299.7187
299.7187
299.7865
299.7868
299.7192
299.7868
299.7873
299.7193
299.7193
299.7873
299.7873
299.7193
299.7873
299.7747
299.7744
299.7744
299.7747
299.7872
299.7869
299.7188
299.7193
299.7869
299.7872
299.7192
299.7746
299.774
299.7743
299.7743
299.7748
299.7748
299.7748
299.7748
299.7641
299.7571
299.7552
299.766
299.764
299.757
299.7551
299.766
299.7721
299.6933
299.7542
299.6933
299.707
299.7631
299.7632
299.7809
299.7144
299.7849
299.7144
299.7114
299.7829
299.7829
299.7597
299.7419
299.7507
299.7508
299.7684
299.7724
299.7704
299.7704
299.7765
299.7695
299.6955
299.7123
299.7092
299.7676
299.7785
299.71
299.7405
299.7385
299.7119
299.7175
299.6283
299.7375
299.685
299.7087
299.7464
299.6417
299.6608
299.5678
299.5811
299.652
299.6757
299.5283
299.6239
299.5894
299.5865
299.6775
299.6212
299.7057
299.7253
299.6969
299.7342
299.7218
299.7527
299.6872
299.6467
299.7508
299.7237
299.6438
299.665
299.586
299.5832
299.6669
299.7671
299.7579
299.7668
299.7582
299.784
299.7184
299.7857
299.7148
299.786
299.7837
299.7153
299.7716
299.7736
299.7736
299.7717
299.7797
299.7133
299.6995
299.7708
299.7707
299.7132
299.7797
299.7715
299.7732
299.7735
299.7712
299.7796
299.7703
299.7127
299.6994
299.7793
299.7706
299.7132
299.7672
299.7584
299.7583
299.7673
299.713
299.7413
299.7127
299.7416
299.6787
299.5344
299.6244
299.5898
299.5903
299.6783
299.6252
299.725
299.6479
299.6912
299.754
299.7539
299.6478
299.725
299.6681
299.587
299.5869
299.6681
299.7248
299.7535
299.6471
299.6911
299.7245
299.7538
299.6477
299.6679
299.5863
299.5868
299.6676
299.7131
299.7417
299.7417
299.7132
299.6675
299.5858
299.5859
299.6675
299.6783
299.6243
299.5893
299.5326
299.6782
299.5894
299.6244
299.7129
299.7416
299.7129
299.7416
299.7246
299.691
299.6472
299.7538
299.7246
299.6472
299.7538
299.6675
299.5858
299.6675
299.5859
299.6783
299.5894
299.5327
299.6244
299.5894
299.6782
299.6244
299.7129
299.7416
299.7129
299.7416
299.6675
299.5858
299.6675
299.5859
299.7246
299.691
299.6472
299.7538
299.7246
299.6472
299.7538
299.6783
299.6246
299.5328
299.5895
299.5894
299.6244
299.6784
299.7129
299.7416
299.7416
299.7129
299.6782
299.5893
299.6244
299.532
299.6782
299.5893
299.6243
299.7129
299.7416
299.7128
299.7416
299.6675
299.586
299.5859
299.6676
299.7717
299.7736
299.7736
299.7717
299.7673
299.7583
299.7673
299.7583
299.7841
299.7153
299.7861
299.7184
299.7153
299.7841
299.7861
299.7797
299.6993
299.7707
299.7131
299.7131
299.7707
299.7797
299.7717
299.7736
299.7717
299.7736
299.7673
299.7583
299.7583
299.7673
299.7841
299.7861
299.7184
299.7153
299.7153
299.7861
299.7841
299.7748
299.7745
299.7745
299.7748
299.7872
299.7192
299.7869
299.7188
299.7872
299.7869
299.7192
299.7749
299.7749
299.7749
299.7749
299.7873
299.7193
299.7193
299.7873
299.7873
299.7193
299.7873
299.7748
299.7745
299.7748
299.7745
299.7872
299.7869
299.7188
299.7192
299.7869
299.7872
299.7192
299.7749
299.7749
299.7749
299.7749
299.7717
299.7736
299.7717
299.7736
299.7797
299.6993
299.7707
299.7131
299.7707
299.7797
299.7131
299.7673
299.7583
299.7583
299.7673
299.7841
299.7153
299.7184
299.7861
299.7861
299.7153
299.7841
299.7673
299.7583
299.7583
299.7673
299.7841
299.7861
299.7153
299.7184
299.7841
299.7861
299.7153
299.7717
299.7736
299.7736
299.7717
299.7747
299.7744
299.7747
299.7744
299.7873
299.7193
299.7193
299.7873
299.7873
299.7193
299.7873
299.7872
299.7192
299.7188
299.7869
299.7869
299.7192
299.7872
299.7748
299.7749
299.7749
299.7748
299.7872
299.7869
299.7192
299.7188
299.7872
299.7869
299.7192
299.7748
299.7749
299.7748
299.7749
299.7747
299.7744
299.7744
299.7747
299.7749
299.7749
299.7749
299.7749
299.7749
299.7749
299.7749
299.7749
299.7873
299.7193
299.7873
299.7193
299.7193
299.7873
299.7873
299.7873
299.7193
299.7873
299.7193
299.7193
299.7873
299.7873
299.7749
299.7749
299.7749
299.7749
299.7749
299.7749
299.7749
299.7749
299.7873
299.7873
299.7193
299.7193
299.7193
299.7873
299.7873
299.7748
299.7748
299.7749
299.7748
299.7873
299.7193
299.7873
299.7193
299.7873
299.7873
299.7193
299.7748
299.7748
299.7748
299.7748
299.7873
299.7193
299.7193
299.7873
299.7873
299.7193
299.7873
299.7748
299.7749
299.7748
299.7749
299.7873
299.7873
299.7193
299.7193
299.7873
299.7873
299.7193
299.7748
299.7748
299.7748
299.7748
299.7748
299.7748
299.7749
299.7748
299.7873
299.7193
299.7873
299.7193
299.7873
299.7873
299.7193
299.7749
299.7749
299.7749
299.7749
299.7873
299.7193
299.7193
299.7873
299.7873
299.7193
299.7873
299.7749
299.7749
299.7749
299.7749
299.7873
299.7873
299.7193
299.7193
299.7873
299.7873
299.7193
299.7748
299.7748
299.7748
299.7748
299.7748
299.7748
299.7748
299.7748
299.7873
299.7193
299.7193
299.7873
299.7873
299.7193
299.7873
299.7873
299.7193
299.7193
299.7873
299.7873
299.7193
299.7873
299.7748
299.7748
299.7748
299.7748
299.7873
299.7873
299.7193
299.7193
299.7873
299.7873
299.7193
299.7748
299.7748
299.7748
299.7748
299.7748
299.7748
299.7748
299.7748
299.7748
299.7748
299.7748
299.7748
299.7748
299.7748
299.7748
299.7748
299.7873
299.7194
299.7873
299.7194
299.7194
299.7873
299.7873
299.7873
299.7193
299.7873
299.7194
299.7194
299.7873
299.7873
299.7748
299.7749
299.7748
299.7748
299.7748
299.7748
299.7748
299.7748
299.7873
299.7873
299.7194
299.7194
299.7194
299.7873
299.7873
299.7748
299.7748
299.7748
299.7748
299.7873
299.7193
299.7873
299.7194
299.7873
299.7873
299.7193
299.7747
299.7744
299.7747
299.7744
299.7872
299.7188
299.7193
299.7869
299.7872
299.7193
299.7869
299.7748
299.7748
299.7748
299.7748
299.7873
299.7873
299.7194
299.7193
299.7873
299.7873
299.7193
299.7747
299.7744
299.7747
299.7744
299.7748
299.7748
299.7748
299.7748
299.7873
299.7193
299.7873
299.7194
299.7873
299.7873
299.7194
299.7748
299.7748
299.7748
299.7748
299.7873
299.7194
299.7194
299.7873
299.7873
299.7194
299.7873
299.7748
299.7748
299.7748
299.7748
299.7873
299.7873
299.7194
299.7194
299.7873
299.7873
299.7194
299.7748
299.7748
299.7748
299.7748
299.7748
299.7748
299.7748
299.7748
299.7872
299.7188
299.7193
299.7869
299.7872
299.7193
299.7869
299.7873
299.7193
299.7194
299.7873
299.7873
299.7193
299.7873
299.7747
299.7744
299.7744
299.7747
299.7873
299.7873
299.7193
299.7194
299.7873
299.7873
299.7193
299.7747
299.7744
299.7747
299.7744
299.7748
299.7748
299.7748
299.7748
299.7673
299.7583
299.7584
299.7673
299.7717
299.7736
299.7717
299.7736
299.7797
299.7133
299.7708
299.6995
299.7133
299.7798
299.7708
299.7841
299.7185
299.7861
299.7154
299.7154
299.7861
299.7841
299.7673
299.7584
299.7673
299.7584
299.7716
299.7736
299.7736
299.7716
299.7797
299.7708
299.6995
299.7132
299.7133
299.7708
299.7797
299.7132
299.7417
299.7417
299.7132
299.725
299.6479
299.754
299.6912
299.725
299.754
299.6479
299.6682
299.587
299.5871
299.6682
299.679
299.5351
299.6254
299.5903
299.5904
299.6789
299.6255
299.7132
299.7417
299.7132
299.7417
299.725
299.754
299.6912
299.6478
299.754
299.725
299.6479
299.6682
299.5869
299.587
299.6681
299.7673
299.7583
299.7673
299.7583
299.7841
299.7185
299.7861
299.7154
299.7861
299.7841
299.7154
299.7716
299.7736
299.7736
299.7716
299.7797
299.7133
299.6995
299.7708
299.7708
299.7133
299.7797
299.7716
299.7736
299.7736
299.7716
299.7797
299.7708
299.7132
299.6995
299.7797
299.7708
299.7133
299.7673
299.7583
299.7583
299.7673
299.7131
299.7417
299.7131
299.7417
299.6789
299.5346
299.6253
299.5904
299.5905
299.6789
299.6251
299.725
299.6477
299.6912
299.754
299.754
299.6477
299.725
299.668
299.5869
299.587
299.668
299.725
299.754
299.6478
299.6912
299.725
299.754
299.6478
299.6681
299.5869
299.587
299.6681
299.7131
299.7417
299.7417
299.7131
299.6674
299.5857
299.5858
299.6674
299.6784
299.6246
299.5895
299.534
299.6784
299.5895
299.6246
299.7129
299.7416
299.7129
299.7416
299.7246
299.691
299.6471
299.7538
299.7246
299.6473
299.7538
299.6675
299.586
299.6676
299.5859
299.6783
299.5892
299.5346
299.6242
299.5894
299.6781
299.6245
299.7128
299.7415
299.7128
299.7416
299.6675
299.5856
299.6674
299.5858
299.7246
299.691
299.6471
299.7538
299.7246
299.6472
299.7538
299.6782
299.6245
299.533
299.5893
299.5893
299.6244
299.6783
299.7128
299.7416
299.7416
299.7128
299.6781
299.5891
299.6242
299.5325
299.6781
299.5892
299.6243
299.7128
299.7415
299.7128
299.7415
299.6675
299.5858
299.5859
299.6675
299.7717
299.7736
299.7736
299.7717
299.7673
299.7583
299.7673
299.7583
299.7841
299.7153
299.7861
299.7184
299.7153
299.7841
299.7861
299.7797
299.6993
299.7707
299.7131
299.7131
299.7707
299.7797
299.7717
299.7736
299.7717
299.7736
299.7673
299.7583
299.7583
299.7673
299.7841