/*--------------------------------*- C++ -*----------------------------------*\
| =========                 |                                                 |
| \\      /  F ield         | OpenFOAM: The Open Source CFD Toolbox           |
|  \\    /   O peration     | Version:  2506                                  |
|   \\  /    A nd           | Website:  www.openfoam.com                      |
|    \\/     M anipulation  |                                                 |
\*---------------------------------------------------------------------------*/
FoamFile
{
    version     2.0;
    format      ascii;
    arch        "LSB;label=32;scalar=64";
    class       volScalarField;
    location    "120/airRegion";
    object      alphat;
}
// * * * * * * * * * * * * * * * * * * * * * * * * * * * * * * * * * * * * * //

dimensions      [1 -1 -1 0 0 0 0];

internalField   nonuniform List<scalar> 
260661
(
0.09810466
0.09769418
0.09871454
0.09673974
0.09567568
0.09577794
0.09686579
0.09708577
0.09707705
0.09706804
0.09706764
0.09706882
0.09706978
0.09707041
0.09707081
0.09707109
0.09707128
0.09707142
0.09707154
0.09707163
0.09707171
0.09707178
0.09707184
0.09707191
0.09707197
0.09707204
0.09707212
0.0970722
0.09707229
0.0970724
0.09707252
0.09707266
0.09707283
0.09707303
0.09707326
0.09707353
0.09707385
0.09707422
0.09707458
0.09707483
0.09707451
0.09707226
0.09706356
0.09703319
0.09692759
0.09654562
0.09511363
0.08966946
0.07164074
0.01477802
0.09758301
0.09645249
0.09690658
0.09693177
0.09680035
0.09686429
0.09709067
0.09710852
0.09709399
0.09709054
0.09709174
0.09709331
0.09709445
0.0970952
0.09709569
0.09709603
0.09709627
0.09709644
0.09709658
0.09709669
0.09709678
0.09709686
0.09709694
0.09709701
0.09709709
0.09709716
0.09709724
0.09709734
0.09709744
0.09709755
0.09709769
0.09709784
0.09709802
0.09709823
0.09709847
0.09709875
0.09709906
0.0970994
0.09709972
0.09709985
0.09709933
0.09709666
0.09708716
0.09705534
0.09694832
0.09657599
0.09521538
0.08994476
0.06929918
0.01425424
0.09650119
0.09678131
0.09698261
0.09706127
0.0970952
0.09712212
0.09713631
0.09712691
0.09712247
0.09712316
0.09712495
0.09712642
0.09712739
0.097128
0.09712838
0.0971286
0.09712873
0.09712879
0.09712882
0.09712882
0.0971288
0.09712877
0.09712874
0.0971287
0.09712866
0.09712863
0.0971286
0.09712857
0.09712855
0.09712852
0.0971285
0.09712848
0.09712846
0.09712843
0.09712839
0.09712831
0.09712819
0.09712798
0.09712758
0.09712675
0.0971249
0.09712029
0.09710769
0.09707053
0.09695363
0.09656386
0.0951835
0.089899
0.06913502
0.01415409
0.09633374
0.09703063
0.0970854
0.09709266
0.09711502
0.09712965
0.0971338
0.09713448
0.09713611
0.09713819
0.09713987
0.097141
0.09714168
0.09714204
0.09714219
0.09714221
0.09714214
0.09714202
0.09714186
0.09714168
0.09714148
0.09714128
0.09714107
0.09714086
0.09714065
0.09714044
0.09714023
0.09714002
0.09713979
0.09713956
0.0971393
0.09713901
0.09713867
0.09713828
0.09713779
0.09713718
0.0971364
0.09713535
0.09713387
0.09713165
0.09712788
0.09712053
0.09710374
0.09705954
0.09692969
0.0965152
0.0950921
0.08976832
0.06917168
0.01411236
0.09676869
0.09725742
0.09715036
0.0971083
0.09712016
0.09713245
0.09713965
0.0971439
0.09714673
0.09714864
0.09714982
0.09715045
0.0971507
0.09715069
0.09715051
0.09715023
0.09714988
0.09714948
0.09714906
0.09714861
0.09714816
0.09714771
0.09714725
0.09714679
0.09714634
0.09714588
0.09714542
0.09714495
0.09714446
0.09714393
0.09714334
0.09714268
0.09714192
0.09714102
0.09713993
0.0971386
0.09713692
0.09713476
0.09713188
0.09712783
0.09712163
0.09711092
0.09708916
0.09703704
0.09689355
0.09645451
0.09499098
0.08963504
0.06919334
0.01408752
0.09682886
0.09727426
0.09716257
0.09711791
0.09712777
0.0971394
0.09714659
0.09715075
0.09715309
0.09715433
0.09715486
0.09715492
0.09715467
0.09715423
0.09715366
0.09715302
0.09715232
0.09715159
0.09715083
0.09715007
0.0971493
0.09714852
0.09714776
0.097147
0.09714625
0.0971455
0.09714475
0.09714397
0.09714317
0.0971423
0.09714134
0.09714025
0.09713899
0.09713751
0.09713573
0.09713356
0.09713085
0.09712741
0.09712293
0.09711682
0.09710794
0.09709358
0.09706663
0.09700663
0.09685033
0.0963899
0.09489418
0.08951843
0.06920581
0.01407084
0.09723244
0.0971961
0.09712789
0.09712127
0.09713495
0.09714544
0.09715151
0.09715471
0.0971562
0.09715668
0.09715653
0.09715602
0.09715526
0.09715436
0.09715337
0.09715232
0.09715124
0.09715012
0.09714899
0.09714786
0.09714673
0.0971456
0.09714449
0.09714339
0.09714231
0.09714124
0.09714016
0.09713906
0.09713791
0.09713668
0.09713533
0.0971338
0.09713202
0.09712992
0.09712741
0.09712435
0.09712056
0.09711578
0.09710962
0.0971014
0.09708978
0.09707178
0.09703979
0.09697245
0.09680487
0.09632674
0.09480647
0.08941938
0.06921351
0.01405892
0.09712792
0.09710471
0.09711398
0.09712736
0.09714107
0.09714984
0.09715452
0.09715665
0.09715728
0.09715702
0.09715625
0.09715517
0.09715392
0.09715255
0.09715112
0.09714965
0.09714814
0.09714661
0.09714508
0.09714354
0.09714201
0.09714049
0.09713899
0.09713752
0.09713608
0.09713467
0.09713326
0.09713183
0.09713035
0.09712875
0.09712701
0.09712503
0.09712274
0.09712004
0.0971168
0.09711285
0.09710798
0.09710188
0.09709407
0.09708377
0.09706949
0.09704803
0.09701139
0.09693749
0.09676025
0.09626775
0.09472879
0.08933548
0.0692179
0.01404994
0.09706871
0.09708464
0.09711629
0.09713301
0.09714542
0.09715264
0.09715611
0.0971573
0.09715715
0.09715624
0.09715488
0.09715328
0.09715153
0.09714971
0.09714783
0.09714592
0.09714397
0.097142
0.09714003
0.09713805
0.09713607
0.09713412
0.0971322
0.09713033
0.09712851
0.09712675
0.09712501
0.09712326
0.09712146
0.09711954
0.09711743
0.09711503
0.09711226
0.09710898
0.09710505
0.09710025
0.09709435
0.09708697
0.09707759
0.09706532
0.09704858
0.09702394
0.0969831
0.09690347
0.09671809
0.09621396
0.09466063
0.08926411
0.06922011
0.01404295
0.09706438
0.09708756
0.09712114
0.0971371
0.09714819
0.09715423
0.09715676
0.09715717
0.09715635
0.09715485
0.09715296
0.09715086
0.09714865
0.09714637
0.09714404
0.09714167
0.09713927
0.09713684
0.09713439
0.09713192
0.09712945
0.09712703
0.09712466
0.09712236
0.09712015
0.09711803
0.09711597
0.09711392
0.09711184
0.09710963
0.0971072
0.09710444
0.09710123
0.09709742
0.09709285
0.09708728
0.09708041
0.09707185
0.09706101
0.09704694
0.09702794
0.09700044
0.0969559
0.09687133
0.09667913
0.09616554
0.09460099
0.08920307
0.06922087
0.01403736
0.09706733
0.09709123
0.09712448
0.09713962
0.09714979
0.09715501
0.09715681
0.09715658
0.09715519
0.09715316
0.09715079
0.09714823
0.09714557
0.09714284
0.09714005
0.09713722
0.09713434
0.09713141
0.09712844
0.09712545
0.09712246
0.0971195
0.09711664
0.09711388
0.09711127
0.09710879
0.09710642
0.09710412
0.0971018
0.09709935
0.09709667
0.09709362
0.09709004
0.09708577
0.09708063
0.09707435
0.09706662
0.09705699
0.09704483
0.09702913
0.0970081
0.09697808
0.09693031
0.09684152
0.0966436
0.09612228
0.09454884
0.08915058
0.0692207
0.01403279
0.09706909
0.09709334
0.09712637
0.09714104
0.09715063
0.09715526
0.0971565
0.09715574
0.09715386
0.09715137
0.09714856
0.09714556
0.09714246
0.09713929
0.09713605
0.09713274
0.09712936
0.0971259
0.09712237
0.09711881
0.09711523
0.0971117
0.09710829
0.09710503
0.09710199
0.09709916
0.09709653
0.09709402
0.09709152
0.09708892
0.09708606
0.09708278
0.09707892
0.09707428
0.09706865
0.09706176
0.09705327
0.09704268
0.09702934
0.0970122
0.09698939
0.09695715
0.0969066
0.0968142
0.09661149
0.09608381
0.09450321
0.08910522
0.06921995
0.01402902
0.09706996
0.09709448
0.09712742
0.09714182
0.09715102
0.0971552
0.09715599
0.09715479
0.09715249
0.09714958
0.09714636
0.09714296
0.09713943
0.09713582
0.09713213
0.09712834
0.09712443
0.09712041
0.09711629
0.09711209
0.09710787
0.0971037
0.09709968
0.09709588
0.0970924
0.09708924
0.09708637
0.09708371
0.09708111
0.09707843
0.09707549
0.09707208
0.09706802
0.0970631
0.09705708
0.09704968
0.09704052
0.0970291
0.09701473
0.09699632
0.09697196
0.0969378
0.09688486
0.09678939
0.09658266
0.09604969
0.09446327
0.08906592
0.06921884
0.01402586
0.09707044
0.09709514
0.09712803
0.09714223
0.09715114
0.09715497
0.09715538
0.09715381
0.09715113
0.09714785
0.09714425
0.09714046
0.09713654
0.09713251
0.09712836
0.09712407
0.09711962
0.09711501
0.09711024
0.09710536
0.09710043
0.09709556
0.09709087
0.0970865
0.09708255
0.09707907
0.09707602
0.09707328
0.09707068
0.09706801
0.09706507
0.09706163
0.09705747
0.09705236
0.09704604
0.09703821
0.09702849
0.09701637
0.09700112
0.09698161
0.0969559
0.09692009
0.0968651
0.09676703
0.0965569
0.09601953
0.09442834
0.08903179
0.06921755
0.01402319
0.09707074
0.09709556
0.09712839
0.09714244
0.09715111
0.09715465
0.09715474
0.09715284
0.09714983
0.09714622
0.09714228
0.09713812
0.09713382
0.09712939
0.09712479
0.09711999
0.09711499
0.09710976
0.09710431
0.09709869
0.097093
0.09708737
0.09708196
0.09707697
0.09707255
0.09706876
0.09706558
0.09706283
0.09706031
0.09705776
0.09705492
0.09705154
0.09704737
0.09704215
0.09703563
0.09702748
0.0970173
0.09700458
0.09698857
0.09696812
0.09694126
0.09690403
0.09684729
0.09674701
0.09653403
0.09599296
0.09439782
0.08900216
0.06921618
0.01402094
0.09707094
0.09709583
0.0971286
0.09714253
0.09715099
0.09715428
0.09715411
0.09715193
0.09714863
0.09714472
0.09714046
0.09713597
0.09713131
0.09712648
0.09712145
0.09711616
0.09711059
0.09710473
0.09709859
0.09709221
0.09708572
0.09707927
0.09707309
0.09706745
0.09706255
0.09705848
0.09705521
0.09705253
0.09705018
0.09704784
0.0970452
0.09704195
0.09703785
0.09703261
0.09702596
0.09701755
0.097007
0.09699378
0.09697713
0.09695588
0.09692804
0.09688961
0.09683137
0.09672923
0.09651383
0.09596966
0.09437124
0.08897649
0.06921481
0.01401902
0.09707108
0.09709602
0.09712873
0.09714254
0.09715083
0.09715392
0.09715352
0.09715109
0.09714754
0.09714336
0.09713881
0.09713402
0.09712904
0.09712384
0.09711838
0.09711263
0.09710652
0.09710004
0.0970932
0.09708605
0.09707874
0.09707145
0.0970645
0.09705819
0.0970528
0.09704848
0.09704517
0.09704263
0.09704052
0.09703846
0.09703607
0.09703303
0.09702906
0.09702385
0.09701711
0.09700852
0.09699768
0.09698405
0.09696686
0.09694493
0.09691625
0.09687679
0.0968173
0.09671358
0.09649615
0.09594938
0.09434822
0.08895434
0.06921349
0.0140174
0.09707118
0.09709614
0.0971288
0.09714252
0.09715066
0.09715357
0.09715298
0.09715034
0.09714656
0.09714215
0.09713735
0.0971323
0.09712702
0.09712149
0.09711565
0.09710946
0.09710285
0.09709579
0.09708829
0.09708041
0.09707229
0.09706421
0.09705648
0.09704953
0.09704368
0.09703914
0.09703583
0.09703346
0.09703162
0.09702986
0.09702776
0.09702495
0.09702112
0.09701597
0.0970092
0.09700048
0.0969894
0.09697541
0.09695777
0.09693527
0.09690588
0.09686556
0.09680501
0.09669996
0.09648082
0.09593187
0.09432845
0.08893537
0.06921225
0.01401603
0.09707125
0.09709623
0.09712884
0.09714247
0.0971505
0.09715326
0.0971525
0.09714969
0.09714572
0.09714111
0.0971361
0.09713081
0.09712528
0.09711946
0.0971133
0.09710673
0.09709968
0.09709211
0.09708402
0.09707548
0.09706666
0.09705784
0.09704943
0.09704189
0.09703564
0.0970309
0.0970276
0.0970254
0.09702382
0.09702234
0.09702051
0.09701791
0.09701422
0.09700912
0.09700232
0.09699349
0.09698221
0.09696793
0.0969499
0.09692692
0.09689693
0.09685589
0.09679444
0.09668828
0.09646772
0.09591696
0.09431166
0.0889193
0.06921113
0.01401489
0.0970713
0.0970963
0.09712886
0.09714242
0.09715035
0.09715299
0.09715209
0.09714914
0.09714502
0.09714025
0.09713506
0.09712959
0.09712384
0.09711779
0.09711137
0.09710449
0.09709709
0.09708912
0.09708056
0.09707149
0.09706209
0.09705268
0.09704371
0.09703569
0.09702911
0.0970242
0.0970209
0.09701883
0.09701744
0.09701619
0.09701455
0.0970121
0.0970085
0.09700343
0.09699659
0.09698765
0.09697618
0.09696164
0.09694328
0.09691988
0.0968894
0.09684774
0.09678556
0.09667848
0.09645675
0.0959045
0.09429766
0.08890593
0.06921013
0.01401395
0.09707134
0.09709634
0.09712887
0.09714238
0.09715022
0.09715277
0.09715176
0.09714869
0.09714446
0.09713956
0.09713425
0.09712863
0.09712273
0.09711651
0.0971099
0.09710281
0.09709516
0.09708691
0.09707802
0.0970686
0.09705882
0.09704901
0.09703966
0.09703131
0.09702449
0.09701945
0.09701611
0.09701408
0.09701278
0.09701162
0.09701006
0.09700767
0.09700409
0.09699899
0.09699206
0.09698299
0.09697134
0.09695657
0.09693791
0.09691417
0.09688326
0.0968411
0.09677831
0.09667048
0.0964478
0.09589435
0.09428628
0.08889507
0.06920927
0.0140132
0.09707136
0.09709637
0.09712887
0.09714234
0.09715012
0.0971526
0.09715151
0.09714836
0.09714404
0.09713906
0.09713365
0.09712794
0.09712195
0.09711563
0.09710892
0.09710171
0.09709394
0.09708555
0.09707652
0.09706694
0.09705699
0.097047
0.09703748
0.09702899
0.09702203
0.09701688
0.09701347
0.09701137
0.09701003
0.09700882
0.0970072
0.09700473
0.09700106
0.09699586
0.0969888
0.09697956
0.09696773
0.09695273
0.09693381
0.09690977
0.09687851
0.09683595
0.09677267
0.09666425
0.09644082
0.09588643
0.0942774
0.08888659
0.06920856
0.01401262
0.09707137
0.09709639
0.09712887
0.09714231
0.09715005
0.09715248
0.09715135
0.09714814
0.09714377
0.09713874
0.09713329
0.09712754
0.0971215
0.09711515
0.09710842
0.0971012
0.09709343
0.09708506
0.09707607
0.09706654
0.09705665
0.09704674
0.09703728
0.09702881
0.09702183
0.0970166
0.09701306
0.0970108
0.09700925
0.09700783
0.09700601
0.09700334
0.09699947
0.09699406
0.09698681
0.09697738
0.09696534
0.09695013
0.09693098
0.09690668
0.09687514
0.09683225
0.0967686
0.09665972
0.09643573
0.09588064
0.09427091
0.08888039
0.06920801
0.0140122
0.09707138
0.0970964
0.09712887
0.09714229
0.09715002
0.09715242
0.09715126
0.09714804
0.09714365
0.0971386
0.09713315
0.0971274
0.0971214
0.09711509
0.09710841
0.09710128
0.09709364
0.09708543
0.09707666
0.09706737
0.09705776
0.09704814
0.09703895
0.09703067
0.09702378
0.09701852
0.0970148
0.09701227
0.09701038
0.09700861
0.09700645
0.09700346
0.09699928
0.0969936
0.0969861
0.09697644
0.09696418
0.09694876
0.0969294
0.09690489
0.09687313
0.09683
0.09676607
0.09665688
0.09643251
0.09587696
0.09426674
0.08887639
0.06920762
0.01401194
0.09707138
0.0970964
0.09712887
0.09714229
0.09715001
0.09715241
0.09715126
0.09714804
0.09714367
0.09713865
0.09713323
0.09712754
0.09712161
0.0971154
0.09710885
0.0971019
0.09709449
0.09708658
0.09707815
0.09706928
0.09706013
0.09705098
0.09704222
0.09703428
0.09702757
0.0970223
0.09701839
0.09701552
0.09701322
0.09701099
0.09700838
0.09700497
0.09700042
0.09699441
0.09698662
0.0969767
0.09696422
0.09694861
0.09692908
0.09690439
0.09687246
0.09682917
0.09676508
0.09665571
0.09643114
0.09587534
0.09426488
0.08887458
0.06920741
0.01401182
0.09707138
0.0970964
0.09712888
0.09714231
0.09715004
0.09715247
0.09715134
0.09714816
0.09714383
0.09713886
0.09713352
0.09712793
0.09712211
0.09711606
0.09710971
0.09710301
0.09709592
0.09708838
0.0970804
0.09707207
0.0970635
0.09705495
0.09704674
0.09703924
0.09703277
0.09702752
0.09702342
0.09702019
0.09701743
0.0970147
0.09701158
0.09700771
0.09700275
0.09699638
0.09698829
0.09697812
0.09696542
0.09694964
0.09692997
0.09690516
0.09687314
0.09682977
0.09676562
0.09665621
0.0964316
0.09587579
0.09426532
0.08887496
0.06920741
0.01401184
0.09707137
0.09709639
0.09712889
0.09714234
0.09715011
0.09715257
0.0971515
0.09714838
0.09714412
0.09713924
0.09713401
0.09712854
0.09712288
0.09711702
0.09711092
0.09710452
0.09709779
0.0970907
0.09708325
0.09707551
0.09706759
0.0970597
0.09705211
0.0970451
0.09703894
0.09703375
0.09702948
0.0970259
0.09702268
0.09701944
0.09701581
0.09701147
0.09700609
0.09699936
0.09699099
0.09698058
0.0969677
0.09695178
0.09693201
0.09690715
0.09687511
0.09683175
0.09676766
0.09665834
0.09643388
0.09587828
0.09426805
0.08887753
0.06920763
0.01401201
0.09707136
0.09709638
0.0971289
0.09714238
0.0971502
0.09715273
0.09715173
0.0971487
0.09714454
0.09713977
0.09713467
0.09712936
0.09712388
0.09711825
0.09711243
0.09710636
0.09710003
0.09709342
0.09708653
0.09707941
0.09707216
0.09706495
0.09705798
0.09705148
0.09704564
0.09704055
0.09703615
0.09703227
0.09702864
0.09702493
0.09702084
0.09701606
0.0970103
0.09700325
0.09699461
0.096984
0.09697098
0.09695498
0.09693517
0.09691032
0.09687833
0.09683509
0.09677116
0.09666208
0.09643795
0.09588279
0.09427302
0.08888222
0.06920802
0.01401233
0.09707135
0.09709636
0.09712891
0.09714244
0.09715033
0.09715295
0.09715204
0.09714911
0.09714507
0.09714044
0.09713549
0.09713036
0.0971251
0.09711971
0.09711419
0.09710848
0.09710256
0.09709643
0.09709009
0.09708358
0.09707699
0.09707043
0.09706406
0.09705806
0.09705255
0.09704758
0.09704312
0.09703902
0.09703504
0.09703095
0.09702647
0.09702132
0.09701522
0.09700791
0.09699905
0.09698829
0.0969752
0.09695917
0.09693938
0.09691462
0.09688279
0.09683976
0.09677612
0.09666742
0.09644381
0.09588933
0.09428026
0.08888908
0.06920856
0.0140128
0.09707132
0.09709633
0.09712892
0.09714252
0.09715049
0.09715321
0.09715242
0.09714962
0.09714572
0.09714124
0.09713647
0.09713154
0.0971265
0.09712138
0.09711615
0.0971108
0.0971053
0.09709964
0.09709383
0.0970879
0.09708192
0.09707597
0.09707017
0.09706463
0.09705944
0.09705464
0.09705017
0.09704592
0.0970417
0.09703732
0.09703254
0.0970271
0.09702075
0.09701323
0.09700424
0.0969934
0.09698029
0.0969643
0.09694463
0.09692004
0.09688845
0.09684574
0.09678252
0.09667437
0.09645147
0.09589793
0.09428981
0.08889814
0.06920925
0.01401342
0.0970713
0.0970963
0.09712894
0.09714261
0.09715068
0.09715352
0.09715287
0.09715021
0.09714647
0.09714217
0.09713759
0.09713287
0.09712808
0.09712322
0.0971183
0.09711331
0.0971082
0.09710299
0.09709769
0.0970923
0.09708687
0.09708147
0.09707618
0.09707108
0.0970662
0.09706158
0.09705716
0.09705285
0.0970485
0.09704392
0.09703893
0.09703329
0.09702679
0.09701915
0.09701009
0.09699926
0.09698621
0.09697034
0.09695087
0.09692655
0.09689531
0.09685305
0.09679039
0.09668295
0.09646099
0.09590864
0.09430177
0.08890951
0.06921009
0.01401421
0.09707126
0.09709626
0.09712896
0.09714271
0.09715091
0.09715388
0.09715339
0.0971509
0.09714733
0.09714322
0.09713884
0.09713435
0.09712981
0.09712523
0.09712061
0.09711596
0.09711124
0.09710646
0.09710161
0.09709671
0.09709179
0.09708689
0.09708207
0.09707736
0.0970728
0.09706838
0.09706405
0.09705975
0.09705535
0.09705067
0.09704557
0.09703984
0.09703327
0.09702561
0.09701657
0.09700583
0.09699292
0.09697727
0.09695808
0.09693414
0.09690337
0.09686169
0.09679975
0.09669321
0.09647242
0.09592157
0.09431624
0.08892331
0.06921107
0.01401518
0.09707121
0.09709621
0.09712897
0.09714283
0.09715116
0.0971543
0.09715398
0.09715167
0.0971483
0.09714439
0.09714024
0.09713598
0.09713169
0.09712739
0.09712308
0.09711875
0.09711439
0.09711001
0.09710559
0.09710113
0.09709666
0.09709222
0.09708781
0.09708348
0.09707922
0.09707502
0.09707084
0.09706661
0.09706223
0.09705756
0.09705244
0.09704671
0.09704016
0.09703256
0.09702365
0.09701307
0.09700039
0.09698506
0.09696627
0.09694281
0.09691264
0.09687168
0.09681063
0.09670521
0.09648584
0.09593682
0.09433339
0.0889397
0.06921218
0.01401635
0.09707115
0.09709614
0.09712899
0.09714296
0.09715145
0.09715477
0.09715464
0.09715254
0.09714938
0.09714569
0.09714176
0.09713774
0.09713371
0.09712969
0.09712568
0.09712167
0.09711766
0.09711364
0.09710961
0.09710557
0.09710152
0.09709748
0.09709346
0.09708947
0.0970855
0.09708154
0.09707755
0.09707345
0.09706917
0.09706457
0.09705952
0.09705387
0.09704743
0.09704
0.09703128
0.09702096
0.09700862
0.09699369
0.09697541
0.09695257
0.09692313
0.09688306
0.09682308
0.09671901
0.09650137
0.09595455
0.09435341
0.0889589
0.06921339
0.01401774
0.09707108
0.09709606
0.097129
0.09714311
0.09715178
0.0971553
0.09715538
0.0971535
0.09715057
0.09714711
0.09714342
0.09713965
0.09713588
0.09713213
0.09712841
0.09712472
0.09712104
0.09711737
0.0971137
0.09711003
0.09710636
0.0971027
0.09709904
0.09709537
0.0970917
0.097088
0.09708422
0.0970803
0.09707617
0.09707171
0.09706682
0.09706134
0.09705509
0.09704789
0.09703946
0.09702949
0.09701758
0.09700318
0.09698551
0.09696341
0.09693486
0.09689585
0.09683717
0.0967347
0.09651913
0.09597494
0.09437656
0.08898119
0.06921468
0.01401938
0.09707101
0.09709596
0.09712902
0.09714328
0.09715214
0.09715588
0.0971562
0.09715456
0.09715187
0.09714866
0.09714522
0.0971417
0.09713819
0.09713472
0.09713129
0.0971279
0.09712455
0.09712121
0.09711788
0.09711456
0.09711124
0.09710791
0.09710459
0.09710125
0.09709787
0.09709443
0.09709089
0.0970872
0.09708327
0.09707903
0.09707435
0.09706911
0.09706313
0.09705623
0.09704818
0.09703865
0.09702727
0.0970135
0.09699658
0.09697536
0.09694786
0.09691012
0.09685297
0.09675241
0.09653928
0.09599822
0.09440315
0.0890069
0.06921602
0.0140213
0.09707094
0.09709587
0.09712904
0.09714346
0.09715254
0.09715652
0.09715709
0.09715571
0.09715328
0.09715032
0.09714714
0.0971439
0.09714066
0.09713746
0.09713432
0.09713123
0.09712818
0.09712516
0.09712216
0.09711917
0.09711618
0.09711319
0.09711018
0.09710715
0.09710407
0.09710091
0.09709763
0.09709419
0.09709052
0.09708653
0.09708212
0.09707717
0.09707154
0.09706503
0.09705743
0.09704844
0.09703768
0.09702465
0.0970086
0.09698843
0.09696216
0.09692589
0.09687054
0.09677223
0.096562
0.09602466
0.09443358
0.08903647
0.06921736
0.01402356
0.09707093
0.09709579
0.09712908
0.09714367
0.09715297
0.09715721
0.09715805
0.09715694
0.09715478
0.0971521
0.09714919
0.09714622
0.09714326
0.09714035
0.09713749
0.09713469
0.09713194
0.09712923
0.09712654
0.09712387
0.0971212
0.09711853
0.09711583
0.09711311
0.09711032
0.09710746
0.09710447
0.09710131
0.09709792
0.09709423
0.09709014
0.09708555
0.09708031
0.09707426
0.09706719
0.09705882
0.09704879
0.09703661
0.09702158
0.09700259
0.09697775
0.09694321
0.09688996
0.0967943
0.0965875
0.09605461
0.09446833
0.08907045
0.06921861
0.01402622
0.097071
0.09709575
0.09712915
0.0971439
0.09715343
0.09715793
0.09715905
0.09715823
0.09715636
0.09715396
0.09715135
0.09714866
0.09714598
0.09714336
0.09714079
0.09713828
0.09713583
0.09713341
0.09713103
0.09712866
0.0971263
0.09712394
0.09712155
0.09711913
0.09711665
0.09711408
0.09711139
0.09710854
0.09710547
0.09710212
0.0970984
0.09709421
0.09708943
0.09708391
0.09707744
0.09706977
0.09706056
0.09704934
0.09703546
0.09701784
0.09699464
0.09696208
0.09691129
0.09681874
0.096616
0.09608842
0.09450799
0.08910954
0.06921967
0.01402937
0.09707092
0.0970956
0.09712918
0.09714413
0.09715387
0.09715863
0.09716003
0.0971595
0.09715794
0.09715586
0.09715355
0.09715116
0.09714878
0.09714645
0.09714418
0.09714197
0.09713981
0.09713769
0.0971356
0.09713353
0.09713148
0.09712941
0.09712733
0.09712521
0.09712303
0.09712077
0.0971184
0.09711588
0.09711315
0.09711017
0.09710685
0.09710311
0.09709884
0.09709389
0.09708809
0.0970812
0.0970729
0.09706277
0.09705017
0.09703409
0.09701275
0.09698246
0.09693451
0.09684561
0.0966477
0.09612652
0.09455326
0.0891546
0.06922038
0.01403313
0.09706942
0.09709449
0.09712877
0.09714414
0.09715418
0.09715919
0.09716087
0.09716066
0.09715943
0.09715768
0.0971557
0.09715363
0.09715157
0.09714954
0.09714757
0.09714566
0.09714379
0.09714197
0.09714018
0.09713841
0.09713664
0.09713488
0.09713309
0.09713128
0.09712941
0.09712747
0.09712542
0.09712324
0.09712088
0.09711829
0.0971154
0.09711215
0.09710842
0.0971041
0.09709903
0.09709298
0.09708568
0.09707674
0.09706555
0.09705119
0.09703194
0.09700424
0.09695957
0.09687494
0.09668277
0.09616934
0.094605
0.08920674
0.0692205
0.01403768
0.09706254
0.09708984
0.09712655
0.09714335
0.09715401
0.09715935
0.09716133
0.09716147
0.09716061
0.09715924
0.09715762
0.0971559
0.09715417
0.09715247
0.09715081
0.09714919
0.09714763
0.0971461
0.0971446
0.09714312
0.09714165
0.09714018
0.09713869
0.09713718
0.09713562
0.09713399
0.09713228
0.09713045
0.09712847
0.09712629
0.09712386
0.09712112
0.09711797
0.09711432
0.09711001
0.09710487
0.09709865
0.09709098
0.09708134
0.09706885
0.09705192
0.09702714
0.09698621
0.09690655
0.09672124
0.09621727
0.09466416
0.08926737
0.0692197
0.01404325
0.09704448
0.09707801
0.09712011
0.09714047
0.09715265
0.09715858
0.09716098
0.09716155
0.09716114
0.0971602
0.09715899
0.09715765
0.09715628
0.09715491
0.09715357
0.09715227
0.097151
0.09714977
0.09714856
0.09714737
0.09714619
0.097145
0.09714381
0.0971426
0.09714134
0.09714004
0.09713866
0.09713719
0.09713559
0.09713384
0.09713188
0.09712966
0.09712711
0.09712414
0.09712064
0.09711645
0.09711135
0.09710504
0.09709705
0.09708659
0.09707219
0.09705063
0.09701393
0.09694004
0.09676287
0.09627055
0.09473182
0.0893383
0.06921745
0.01405021
0.09705265
0.09706744
0.09710879
0.09713415
0.09714897
0.09715593
0.09715898
0.0971602
0.0971604
0.09716
0.09715926
0.09715835
0.09715736
0.09715634
0.09715533
0.09715434
0.09715337
0.09715243
0.09715151
0.0971506
0.0971497
0.0971488
0.09714789
0.09714697
0.09714602
0.09714503
0.09714398
0.09714286
0.09714165
0.09714032
0.09713882
0.09713714
0.09713519
0.09713293
0.09713024
0.09712702
0.09712307
0.09711816
0.09711188
0.09710355
0.09709185
0.09707379
0.09704178
0.09697446
0.09680696
0.096329
0.09480896
0.08942174
0.06921303
0.01405916
0.09744455
0.0971364
0.0970982
0.09712406
0.09714149
0.09714969
0.09715385
0.09715622
0.09715738
0.09715771
0.09715754
0.09715709
0.0971565
0.09715585
0.09715517
0.09715449
0.09715382
0.09715316
0.09715251
0.09715187
0.09715124
0.09715061
0.09714998
0.09714933
0.09714867
0.09714798
0.09714725
0.09714647
0.09714563
0.0971447
0.09714366
0.09714249
0.09714113
0.09713955
0.09713767
0.09713539
0.0971326
0.09712908
0.09712452
0.09711836
0.09710943
0.09709504
0.09706809
0.09700812
0.0968519
0.09639162
0.09489614
0.08952032
0.06920531
0.01407105
0.09962421
0.09740571
0.09709282
0.0971087
0.09712795
0.09713712
0.09714303
0.09714759
0.09715043
0.09715184
0.09715238
0.09715244
0.09715227
0.09715196
0.0971516
0.09715122
0.09715082
0.09715043
0.09715004
0.09714965
0.09714926
0.09714888
0.09714849
0.0971481
0.0971477
0.09714728
0.09714684
0.09714638
0.09714587
0.09714532
0.0971447
0.097144
0.09714319
0.09714225
0.09714111
0.09713973
0.097138
0.0971358
0.09713289
0.09712881
0.0971226
0.09711188
0.09709014
0.09703806
0.09689464
0.09645575
0.09499244
0.08963649
0.06919285
0.0140877
0.09712364
0.09691492
0.09701492
0.09707513
0.09710172
0.09711529
0.09712451
0.09713233
0.0971378
0.09714081
0.09714222
0.0971428
0.097143
0.09714301
0.09714292
0.09714279
0.09714264
0.09714247
0.09714229
0.09714212
0.09714194
0.09714176
0.09714159
0.09714141
0.09714122
0.09714104
0.09714084
0.09714064
0.09714042
0.09714018
0.09713992
0.09713962
0.09713927
0.09713886
0.09713836
0.09713774
0.09713695
0.09713589
0.09713441
0.09713218
0.09712842
0.09712109
0.09710432
0.09706016
0.09693039
0.09651604
0.09509317
0.08976942
0.06917126
0.01411251
0.09892838
0.09697952
0.0969869
0.09704804
0.09710909
0.09713389
0.09711424
0.09711408
0.09712019
0.09712477
0.09712704
0.09712804
0.09712849
0.09712872
0.09712883
0.09712888
0.0971289
0.0971289
0.09712888
0.09712886
0.09712883
0.0971288
0.09712878
0.09712875
0.09712873
0.0971287
0.09712868
0.09712867
0.09712865
0.09712864
0.09712863
0.09712862
0.0971286
0.09712858
0.09712855
0.09712848
0.09712837
0.09712817
0.09712778
0.09712697
0.09712513
0.09712054
0.09710797
0.09707086
0.09695402
0.09656438
0.09518417
0.08989969
0.06913464
0.01415419
0.09515889
0.09603278
0.09709801
0.09746684
0.09770187
0.09769279
0.09722237
0.09709693
0.09708714
0.09709106
0.09709369
0.09709485
0.09709539
0.09709571
0.09709593
0.0970961
0.09709623
0.09709633
0.09709642
0.0970965
0.09709657
0.09709663
0.0970967
0.09709677
0.09709685
0.09709693
0.09709702
0.09709712
0.09709724
0.09709737
0.09709752
0.09709769
0.09709789
0.09709811
0.09709837
0.09709867
0.09709901
0.09709937
0.0970997
0.09709986
0.09709935
0.09709671
0.09708724
0.09705546
0.09694849
0.0965762
0.09521562
0.08994502
0.06929874
0.01425424
0.09706272
0.09548324
0.09919276
0.1003009
0.1008901
0.1006082
0.09765591
0.09711484
0.09706496
0.09706741
0.09706961
0.09707043
0.09707072
0.09707089
0.09707102
0.09707114
0.09707124
0.09707132
0.0970714
0.09707146
0.09707152
0.09707158
0.09707164
0.09707171
0.09707177
0.09707184
0.09707192
0.09707201
0.09707211
0.09707223
0.09707236
0.09707252
0.0970727
0.09707291
0.09707316
0.09707345
0.09707378
0.09707416
0.09707454
0.0970748
0.0970745
0.09707227
0.09706359
0.09703324
0.09692766
0.09654569
0.09511374
0.08966954
0.07164062
0.014778
0.09402313
0.0947354
0.0955973
0.09604894
0.09555075
0.09563965
0.09630816
0.09642468
0.09638533
0.09636313
0.09635919
0.09636046
0.09636235
0.09636391
0.09636511
0.09636606
0.09636682
0.09636747
0.09636803
0.09636853
0.096369
0.09636944
0.09636986
0.09637027
0.09637069
0.09637111
0.09637156
0.09637203
0.09637254
0.09637312
0.09637376
0.09637451
0.09637537
0.0963764
0.09637762
0.09637908
0.09638085
0.09638296
0.09638541
0.09638796
0.09638963
0.09638711
0.09636959
0.09630214
0.09607038
0.09529284
0.09268519
0.08406457
0.05902422
0.01475283
0.09477624
0.09570087
0.09618417
0.09636956
0.0963118
0.09636842
0.09651347
0.09649161
0.09645497
0.09644231
0.09644141
0.09644326
0.09644512
0.09644654
0.09644757
0.09644833
0.09644891
0.09644937
0.09644975
0.09645008
0.09645037
0.09645063
0.09645088
0.09645113
0.09645138
0.09645163
0.09645191
0.09645221
0.09645254
0.09645292
0.09645335
0.09645386
0.09645446
0.09645517
0.09645603
0.09645707
0.09645834
0.09645984
0.09646154
0.09646313
0.09646352
0.09645914
0.09643858
0.09636563
0.09612364
0.09533147
0.09272781
0.08416333
0.05786768
0.01434489
0.09586987
0.09625154
0.09640367
0.09647118
0.09650779
0.09653426
0.0965334
0.09650641
0.0964918
0.09648933
0.09649118
0.09649352
0.09649537
0.09649668
0.09649758
0.0964982
0.09649864
0.09649895
0.09649919
0.09649937
0.09649951
0.09649963
0.09649973
0.09649983
0.09649993
0.09650004
0.09650016
0.09650031
0.09650047
0.09650067
0.09650091
0.0965012
0.09650156
0.09650199
0.09650252
0.09650318
0.09650397
0.09650488
0.09650583
0.09650643
0.0965054
0.09649878
0.0964743
0.09639356
0.09613489
0.09530658
0.09262901
0.08391523
0.05736372
0.01416874
0.09596217
0.09648555
0.09652305
0.09651021
0.09652923
0.09654846
0.09655225
0.09655014
0.0965512
0.09655439
0.09655766
0.09656017
0.0965619
0.09656302
0.09656373
0.09656417
0.09656441
0.09656454
0.09656458
0.09656456
0.09656451