/*--------------------------------*- C++ -*----------------------------------*\
| =========                 |                                                 |
| \\      /  F ield         | OpenFOAM: The Open Source CFD Toolbox           |
|  \\    /   O peration     | Version:  2506                                  |
|   \\  /    A nd           | Website:  www.openfoam.com                      |
|    \\/     M anipulation  |                                                 |
\*---------------------------------------------------------------------------*/
FoamFile
{
    version     2.0;
    format      ascii;
    arch        "LSB;label=32;scalar=64";
    class       volScalarField;
    location    "120/airRegion";
    object      nut;
}
// * * * * * * * * * * * * * * * * * * * * * * * * * * * * * * * * * * * * * //

dimensions      [0 2 -1 0 0 0 0];

internalField   nonuniform List<scalar> 
260661
(
0.0967822
0.1005408
0.1020679
0.1000598
0.09877451
0.09889072
0.1002353
0.1005336
0.1005402
0.1005339
0.1005341
0.1005354
0.1005364
0.1005371
0.1005375
0.1005378
0.100538
0.1005382
0.1005383
0.1005384
0.1005384
0.1005385
0.1005386
0.1005387
0.1005387
0.1005388
0.1005389
0.100539
0.1005391
0.1005392
0.1005393
0.1005394
0.1005396
0.1005398
0.1005401
0.1005403
0.1005407
0.100541
0.1005414
0.1005417
0.1005413
0.100539
0.1005299
0.1004982
0.1003878
0.09998728
0.09847458
0.09261652
0.07204078
0.01476861
0.1004152
0.09969544
0.1002888
0.1003367
0.1001613
0.1002336
0.100526
0.1005682
0.1005596
0.1005575
0.1005591
0.1005608
0.100562
0.1005628
0.1005633
0.1005636
0.1005639
0.100564
0.1005642
0.1005643
0.1005644
0.1005645
0.1005646
0.1005646
0.1005647
0.1005648
0.1005649
0.100565
0.1005651
0.1005652
0.1005653
0.1005655
0.1005657
0.1005659
0.1005661
0.1005664
0.1005668
0.1005671
0.1005674
0.1005676
0.100567
0.1005643
0.1005544
0.1005213
0.1004098
0.100022
0.09860366
0.09310598
0.07159968
0.01474822
0.0996553
0.1001324
0.1004077
0.1005065
0.1005391
0.1005701
0.1005967
0.1005929
0.1005903
0.1005915
0.1005935
0.1005951
0.1005961
0.1005967
0.1005971
0.1005973
0.1005975
0.1005975
0.1005976
0.1005976
0.1005976
0.1005975
0.1005975
0.1005975
0.1005974
0.1005974
0.1005973
0.1005973
0.1005973
0.1005973
0.1005972
0.1005972
0.1005972
0.1005972
0.1005971
0.100597
0.1005969
0.1005967
0.1005963
0.1005954
0.1005935
0.1005887
0.1005756
0.1005371
0.1004157
0.1000113
0.09857929
0.09310001
0.07158665
0.01465878
0.0988785
0.1003062
0.1005145
0.1005493
0.1005768
0.1005938
0.1006005
0.1006026
0.1006049
0.1006072
0.100609
0.1006102
0.1006109
0.1006113
0.1006114
0.1006114
0.1006114
0.1006112
0.1006111
0.1006109
0.1006107
0.1006105
0.1006103
0.10061
0.1006098
0.1006096
0.1006094
0.1006092
0.1006089
0.1006087
0.1006084
0.1006081
0.1006078
0.1006074
0.1006069
0.1006062
0.1006054
0.1006043
0.1006028
0.1006005
0.1005966
0.100589
0.1005716
0.1005257
0.1003912
0.09996161
0.09848714
0.0929723
0.07163985
0.01461628
0.0992415
0.1005265
0.1005836
0.1005689
0.1005862
0.1006001
0.1006082
0.1006129
0.100616
0.1006181
0.1006193
0.10062
0.1006202
0.1006202
0.10062
0.1006197
0.1006194
0.100619
0.1006185
0.1006181
0.1006176
0.1006171
0.1006167
0.1006162
0.1006157
0.1006152
0.1006148
0.1006143
0.1006138
0.1006132
0.1006126
0.1006119
0.1006111
0.1006102
0.1006091
0.1006077
0.100606
0.1006037
0.1006007
0.1005965
0.1005901
0.100579
0.1005565
0.1005025
0.1003538
0.09989903
0.0983831
0.09283575
0.07166412
0.01459062
0.09942251
0.1005768
0.100604
0.1005812
0.1005953
0.1006081
0.1006158
0.1006202
0.1006227
0.100624
0.1006245
0.1006246
0.1006243
0.1006239
0.1006233
0.1006226
0.1006219
0.1006211
0.1006204
0.1006196
0.1006188
0.100618
0.1006172
0.1006164
0.1006156
0.1006148
0.1006141
0.1006133
0.1006124
0.1006115
0.1006105
0.1006094
0.1006081
0.1006066
0.1006047
0.1006025
0.1005997
0.1005961
0.1005915
0.1005851
0.1005759
0.1005611
0.1005331
0.100471
0.1003091
0.09983219
0.09828303
0.09271528
0.0716773
0.01457335
0.1005354
0.1006215
0.1005868
0.1005877
0.1006034
0.1006146
0.100621
0.1006243
0.1006259
0.1006264
0.1006263
0.1006257
0.1006249
0.100624
0.100623
0.1006219
0.1006208
0.1006196
0.1006185
0.1006173
0.1006161
0.1006149
0.1006138
0.1006127
0.1006115
0.1006104
0.1006093
0.1006082
0.100607
0.1006057
0.1006043
0.1006027
0.1006009
0.1005987
0.1005961
0.1005929
0.100589
0.1005841
0.1005777
0.1005692
0.1005571
0.1005385
0.1005053
0.1004356
0.100262
0.0997668
0.09819223
0.09261276
0.07168531
0.014561
0.1005702
0.1005633
0.1005796
0.1005954
0.10061
0.1006193
0.1006242
0.1006264
0.100627
0.1006268
0.100626
0.1006249
0.1006236
0.1006221
0.1006207
0.1006191
0.1006176
0.100616
0.1006144
0.1006128
0.1006112
0.1006096
0.1006081
0.1006066
0.1006051
0.1006036
0.1006022
0.1006007
0.1005991
0.1005975
0.1005957
0.1005936
0.1005913
0.1005885
0.1005851
0.100581
0.100576
0.1005696
0.1005616
0.1005509
0.1005361
0.1005139
0.1004759
0.1003994
0.1002158
0.09970572
0.09811179
0.09252587
0.07168987
0.01455171
0.1005313
0.10055
0.100584
0.1006017
0.1006147
0.1006222
0.1006258
0.1006271
0.1006269
0.100626
0.1006246
0.1006229
0.1006211
0.1006192
0.1006173
0.1006153
0.1006132
0.1006112
0.1006092
0.1006071
0.1006051
0.100603
0.1006011
0.1005991
0.1005972
0.1005954
0.1005936
0.1005918
0.1005899
0.1005879
0.1005858
0.1005833
0.1005804
0.100577
0.1005729
0.100568
0.1005618
0.1005542
0.1005445
0.1005318
0.1005144
0.1004889
0.1004466
0.1003641
0.1001721
0.09965
0.0980412
0.09245196
0.07169216
0.01454446
0.1005302
0.1005545
0.1005895
0.1006061
0.1006176
0.1006239
0.1006265
0.1006269
0.1006261
0.1006245
0.1006226
0.1006204
0.1006181
0.1006157
0.1006133
0.1006109
0.1006084
0.1006059
0.1006033
0.1006008
0.1005982
0.1005957
0.1005932
0.1005909
0.1005886
0.1005864
0.1005842
0.1005821
0.10058
0.1005777
0.1005752
0.1005723
0.100569
0.100565
0.1005603
0.1005545
0.1005474
0.1005385
0.1005273
0.1005127
0.1004931
0.1004646
0.1004184
0.1003309
0.1001318
0.09959986
0.09797943
0.09238874
0.07169295
0.01453867
0.1005338
0.1005586
0.100593
0.1006087
0.1006193
0.1006247
0.1006265
0.1006263
0.1006249
0.1006228
0.1006203
0.1006177
0.1006149
0.1006121
0.1006092
0.1006063
0.1006033
0.1006002
0.1005972
0.1005941
0.100591
0.1005879
0.1005849
0.1005821
0.1005794
0.1005768
0.1005744
0.100572
0.1005696
0.100567
0.1005643
0.1005611
0.1005574
0.100553
0.1005476
0.1005411
0.1005331
0.1005232
0.1005106
0.1004943
0.1004725
0.1004414
0.1003919
0.1003
0.100095
0.09955505
0.09792541
0.09233437
0.07169277
0.01453394
0.1005357
0.1005608
0.100595
0.1006102
0.1006202
0.1006249
0.1006262
0.1006254
0.1006235
0.1006209
0.100618
0.1006149
0.1006117
0.1006084
0.100605
0.1006016
0.1005981
0.1005945
0.1005909
0.1005872
0.1005835
0.1005798
0.1005763
0.1005729
0.1005698
0.1005668
0.1005641
0.1005615
0.1005589
0.1005562
0.1005533
0.1005499
0.1005459
0.1005411
0.1005352
0.1005281
0.1005193
0.1005083
0.1004945
0.1004768
0.1004531
0.1004197
0.1003674
0.1002717
0.1000617
0.0995152
0.09787815
0.0922874
0.07169199
0.01453003
0.1005366
0.100562
0.1005961
0.100611
0.1006206
0.1006249
0.1006257
0.1006245
0.1006221
0.1006191
0.1006157
0.1006122
0.1006085
0.1006048
0.100601
0.1005971
0.100593
0.1005888
0.1005846
0.1005802
0.1005759
0.1005715
0.1005674
0.1005634
0.1005598
0.1005566
0.1005536
0.1005508
0.1005481
0.1005454
0.1005423
0.1005388
0.1005346
0.1005295
0.1005233
0.1005156
0.1005061
0.1004943
0.1004794
0.1004603
0.1004351
0.1003997
0.1003449
0.100246
0.1000319
0.09947986
0.09783679
0.09224669
0.07169085
0.01452676
0.1005371
0.1005627
0.1005968
0.1006115
0.1006207
0.1006246
0.1006251
0.1006234
0.1006207
0.1006173
0.1006135
0.1006096
0.1006056
0.1006014
0.1005971
0.1005926
0.100588
0.1005832
0.1005783
0.1005733
0.1005681
0.1005631
0.1005582
0.1005537
0.1005496
0.100546
0.1005429
0.10054
0.1005373
0.1005346
0.1005315
0.100528
0.1005237
0.1005184
0.1005118
0.1005037
0.1004936
0.1004811
0.1004653
0.1004451
0.1004185
0.1003814
0.1003244
0.1002228
0.1000052
0.09944862
0.09780061
0.09221134
0.07168951
0.014524
0.1005374
0.1005631
0.1005971
0.1006117
0.1006206
0.1006243
0.1006244
0.1006224
0.1006193
0.1006156
0.1006115
0.1006072
0.1006027
0.1005981
0.1005934
0.1005884
0.1005832
0.1005778
0.1005722
0.1005664
0.1005605
0.1005546
0.100549
0.1005438
0.1005393
0.1005354
0.1005321
0.1005292
0.1005266
0.100524
0.100521
0.1005175
0.1005132
0.1005078
0.100501
0.1004926
0.100482
0.1004689
0.1004523
0.1004311
0.1004033
0.1003647
0.1003059
0.1002021
0.0999815
0.0994211
0.097769
0.09218065
0.07168809
0.01452166
0.1005377
0.1005634
0.1005973
0.1006118
0.1006205
0.1006239
0.1006238
0.1006215
0.1006181
0.100614
0.1006096
0.100605
0.1006001
0.1005951
0.1005899
0.1005844
0.1005787
0.1005726
0.1005662
0.1005596
0.1005529
0.1005462
0.1005398
0.100534
0.1005289
0.1005247
0.1005213
0.1005185
0.1005161
0.1005137
0.1005109
0.1005076
0.1005033
0.1004979
0.100491
0.1004823
0.1004714
0.1004577
0.1004404
0.1004184
0.1003896
0.1003498
0.1002895
0.1001837
0.09996058
0.09939698
0.09774147
0.09215406
0.07168667
0.01451968
0.1005378
0.1005636
0.1005975
0.1006118
0.1006204
0.1006236
0.1006231
0.1006206
0.1006169
0.1006126
0.1006079
0.1006029
0.1005978
0.1005924
0.1005867
0.1005808
0.1005745
0.1005677
0.1005607
0.1005533
0.1005457
0.1005381
0.1005309
0.1005244
0.1005188
0.1005143
0.1005109
0.1005083
0.1005061
0.100504
0.1005015
0.1004983
0.1004942
0.1004888
0.1004818
0.100473
0.1004617
0.1004476
0.1004298
0.1004071
0.1003774
0.1003365
0.1002749
0.1001675
0.09994226
0.09937596
0.09771763
0.09213112
0.0716853
0.014518
0.1005379
0.1005637
0.1005976
0.1006118
0.1006202
0.1006232
0.1006226
0.1006198
0.1006159
0.1006114
0.1006064
0.1006012
0.1005957
0.10059
0.1005839
0.1005775
0.1005707
0.1005633
0.1005556
0.1005474
0.100539
0.1005306
0.1005226
0.1005154
0.1005094
0.1005047
0.1005012
0.1004988
0.1004969
0.1004951
0.1004929
0.10049
0.100486
0.1004807
0.1004736
0.1004646
0.1004531
0.1004387
0.1004204
0.1003971
0.1003666
0.1003249
0.1002622
0.1001534
0.09992639
0.09935783
0.09769715
0.09211147
0.07168402
0.01451658
0.100538
0.1005638
0.1005976
0.1006117
0.10062
0.1006229
0.1006221
0.1006192
0.1006151
0.1006103
0.1006051
0.1005996
0.1005939
0.1005879
0.1005815
0.1005747
0.1005674
0.1005595
0.1005512
0.1005423
0.1005332
0.100524
0.1005153
0.1005075
0.100501
0.1004961
0.1004927
0.1004904
0.1004888
0.1004873
0.1004854
0.1004827
0.1004789
0.1004736
0.1004665
0.1004574
0.1004457
0.1004309
0.1004122
0.1003884
0.1003574
0.1003149
0.1002512
0.1001413
0.09991282
0.09934239
0.09767976
0.09209483
0.07168285
0.0145154
0.100538
0.1005639
0.1005976
0.1006117
0.1006199
0.1006226
0.1006217
0.1006186
0.1006143
0.1006094
0.100604
0.1005984
0.1005924
0.1005861
0.1005795
0.1005724
0.1005647
0.1005564
0.1005476
0.1005382
0.1005284
0.1005187
0.1005094
0.1005011
0.1004943
0.1004892
0.1004858
0.1004836
0.1004822
0.1004809
0.1004792
0.1004767
0.1004729
0.1004677
0.1004606
0.1004513
0.1004395
0.1004244
0.1004054
0.1003811
0.1003496
0.1003064
0.100242
0.1001311
0.09990145
0.09932948
0.09766526
0.09208098
0.07168182
0.01451443
0.1005381
0.1005639
0.1005976
0.1006116
0.1006197
0.1006224
0.1006213
0.1006181
0.1006138
0.1006087
0.1006032
0.1005974
0.1005912
0.1005848
0.100578
0.1005706
0.1005627
0.1005541
0.1005449
0.1005352
0.100525
0.1005149
0.1005052
0.1004966
0.1004895
0.1004843
0.1004808
0.1004787
0.1004774
0.1004762
0.1004745
0.1004721
0.1004684
0.1004631
0.1004559
0.1004465
0.1004344
0.1004191
0.1003998
0.1003752
0.1003432
0.1002995
0.1002345
0.1001228
0.09989219
0.09931897
0.09765348
0.09206973
0.07168093
0.01451365
0.1005381
0.100564
0.1005976
0.1006116
0.1006196
0.1006222
0.1006211
0.1006178
0.1006133
0.1006082
0.1006026
0.1005966
0.1005904
0.1005839
0.1005769
0.1005695
0.1005614
0.1005527
0.1005434
0.1005335
0.1005232
0.1005128
0.100503
0.1004941
0.1004869
0.1004816
0.1004781
0.1004759
0.1004745
0.1004733
0.1004716
0.100469
0.1004652
0.1004598
0.1004525
0.100443
0.1004307
0.1004152
0.1003956
0.1003707
0.1003383
0.1002942
0.1002287
0.1001164
0.09988495
0.09931076
0.09764427
0.09206095
0.0716802
0.01451305
0.1005381
0.100564
0.1005976
0.1006115
0.1006196
0.1006221
0.1006209
0.1006176
0.100613
0.1006078
0.1006022
0.1005962
0.10059
0.1005834
0.1005764
0.1005689
0.1005609
0.1005522
0.1005429
0.100533
0.1005228
0.1005125
0.1005027
0.100494
0.1004867
0.1004813
0.1004777
0.1004753
0.1004737
0.1004722
0.1004703
0.1004676
0.1004636
0.100458
0.1004505
0.1004407
0.1004282
0.1004125
0.1003926
0.1003675
0.1003348
0.1002904
0.1002244
0.1001117
0.09987969
0.09930478
0.09763755
0.09205452
0.07167962
0.01451262
0.1005381
0.100564
0.1005976
0.1006115
0.1006195
0.100622
0.1006208
0.1006175
0.1006129
0.1006077
0.100602
0.1005961
0.1005899
0.1005833
0.1005764
0.100569
0.1005611
0.1005526
0.1005435
0.1005339
0.100524
0.100514
0.1005045
0.1004959
0.1004888
0.1004833
0.1004795
0.1004768
0.1004749
0.100473
0.1004708
0.1004677
0.1004634
0.1004575
0.1004497
0.1004397
0.100427
0.100411
0.100391
0.1003656
0.1003327
0.100288
0.1002218
0.1001087
0.09987635
0.09930096
0.09763324
0.09205039
0.07167922
0.01451234
0.1005381
0.100564
0.1005976
0.1006115
0.1006195
0.100622
0.1006208
0.1006175
0.1006129
0.1006077
0.1006021
0.1005962
0.1005901
0.1005837
0.1005769
0.1005697
0.100562
0.1005538
0.1005451
0.1005359
0.1005264
0.1005169
0.1005079
0.1004996
0.1004927
0.1004872
0.1004832
0.1004802
0.1004778
0.1004755
0.1004728
0.1004693
0.1004646
0.1004583
0.1004503
0.10044
0.1004271
0.1004109
0.1003907
0.1003651
0.100332
0.1002872
0.1002208
0.1001075
0.09987493
0.09929928
0.09763131
0.09204851
0.071679
0.01451222
0.1005381
0.100564
0.1005976
0.1006115
0.1006195
0.1006221
0.1006209
0.1006176
0.1006131
0.100608
0.1006024
0.1005966
0.1005906
0.1005843
0.1005778
0.1005708
0.1005635
0.1005557
0.1005474
0.1005388
0.1005299
0.100521
0.1005125
0.1005048
0.1004981
0.1004926
0.1004884
0.100485
0.1004822
0.1004793
0.1004761
0.1004721
0.100467
0.1004604
0.100452
0.1004415
0.1004283
0.100412
0.1003916
0.1003659
0.1003327
0.1002878
0.1002214
0.100108
0.09987541
0.09929975
0.09763177
0.09204891
0.07167901
0.01451225
0.1005381
0.100564
0.1005976
0.1006116
0.1006196
0.1006222
0.1006211
0.1006178
0.1006134
0.1006084
0.1006029
0.1005973
0.1005914
0.1005853
0.100579
0.1005724
0.1005654
0.1005581
0.1005504
0.1005423
0.1005341
0.100526
0.1005181
0.1005108
0.1005045
0.1004991
0.1004947
0.1004909
0.1004876
0.1004843
0.1004805
0.100476
0.1004704
0.1004635
0.1004548
0.100444
0.1004307
0.1004142
0.1003937
0.100368
0.1003348
0.1002899
0.1002235
0.1001102
0.09987777
0.09930233
0.09763458
0.09205156
0.07167923
0.01451242
0.1005381
0.100564
0.1005977
0.1006116
0.1006197
0.1006223
0.1006213
0.1006181
0.1006138
0.1006089
0.1006036
0.1005981
0.1005924
0.1005866
0.1005806
0.1005743
0.1005677
0.1005609
0.1005537
0.1005464
0.1005389
0.1005314
0.1005242
0.1005174
0.1005114
0.1005061
0.1005016
0.1004976
0.1004938
0.10049
0.1004857
0.1004808
0.1004748
0.1004675
0.1004585
0.1004475
0.1004341
0.1004175
0.100397
0.1003712
0.1003381
0.1002933
0.1002271
0.1001141
0.09988198
0.099307
0.09763973
0.09205643
0.07167963
0.01451275
0.1005381
0.100564
0.1005977
0.1006117
0.1006198
0.1006226
0.1006216
0.1006186
0.1006144
0.1006096
0.1006045
0.1005992
0.1005937
0.1005881
0.1005824
0.1005765
0.1005704
0.100564
0.1005574
0.1005507
0.1005439
0.1005371
0.1005305
0.1005243
0.1005186
0.1005134
0.1005088
0.1005045
0.1005004
0.1004962
0.1004915
0.1004862
0.1004799
0.1004723
0.1004631
0.100452
0.1004384
0.1004218
0.1004013
0.1003757
0.1003427
0.1002982
0.1002322
0.1001197
0.09988805
0.09931377
0.09764723
0.09206353
0.07168019
0.01451323
0.1005381
0.1005639
0.1005977
0.1006118
0.10062
0.1006228
0.100622
0.1006191
0.1006151
0.1006104
0.1006055
0.1006004
0.1005952
0.1005898
0.1005844
0.1005789
0.1005732
0.1005673
0.1005613
0.1005552
0.100549
0.1005428
0.1005368
0.1005311
0.1005257
0.1005207
0.1005161
0.1005117
0.1005073
0.1005028
0.1004978
0.1004922
0.1004856
0.1004778
0.1004685
0.1004573
0.1004437
0.1004271
0.1004068
0.1003813
0.1003486
0.1003044
0.1002389
0.1001268
0.09989599
0.09932268
0.09765713
0.09207292
0.07168091
0.01451388
0.100538
0.1005639
0.1005977
0.1006119
0.1006202
0.1006231
0.1006225
0.1006197
0.1006158
0.1006114
0.1006066
0.1006018
0.1005968
0.1005918
0.1005867
0.1005815
0.1005762
0.1005708
0.1005653
0.1005597
0.1005541
0.1005485
0.100543
0.1005377
0.1005327
0.1005279
0.1005233
0.1005189
0.1005144
0.1005096
0.1005044
0.1004986
0.1004919
0.100484
0.1004746
0.1004634
0.1004498
0.1004334
0.1004132
0.100388
0.1003557
0.1003119
0.100247
0.1001357
0.09990585
0.09933378
0.09766951
0.09208469
0.07168178
0.0145147
0.100538
0.1005639
0.1005977
0.100612
0.1006204
0.1006235
0.100623
0.1006204
0.1006167
0.1006125
0.1006079
0.1006033
0.1005986
0.1005938
0.1005891
0.1005842
0.1005793
0.1005744
0.1005694
0.1005643
0.1005592
0.1005541
0.1005491
0.1005443
0.1005395
0.1005349
0.1005305
0.100526
0.1005215
0.1005166
0.1005113
0.1005054
0.1004986
0.1004906
0.1004813
0.1004702
0.1004568
0.1004406
0.1004207
0.1003959
0.100364
0.1003209
0.1002567
0.1001464
0.09991769
0.09934716
0.0976845
0.09209898
0.07168279
0.0145157
0.1005379
0.1005638
0.1005977
0.1006121
0.1006207
0.100624
0.1006236
0.1006212
0.1006177
0.1006137
0.1006094
0.100605
0.1006005
0.1005961
0.1005916
0.1005871
0.1005826
0.1005781
0.1005735
0.1005689
0.1005642
0.1005596
0.1005551
0.1005506
0.1005462
0.1005418
0.1005375
0.1005331
0.1005286
0.1005237
0.1005184
0.1005125
0.1005057
0.1004978
0.1004886
0.1004777
0.1004645
0.1004486
0.1004292
0.1004049
0.1003736
0.1003312
0.100268
0.1001588
0.09993159
0.09936296
0.09770226
0.09211596
0.07168394
0.01451691
0.1005379
0.1005637
0.1005977
0.1006122
0.100621
0.1006244
0.1006243
0.1006221
0.1006189
0.100615
0.100611
0.1006068
0.1006026
0.1005985
0.1005943
0.1005902
0.100586
0.1005818
0.1005777
0.1005735
0.1005693
0.1005651
0.1005609
0.1005568
0.1005527
0.1005486
0.1005445
0.1005402
0.1005358
0.100531
0.1005258
0.1005199
0.1005133
0.1005056
0.1004965
0.1004858
0.100473
0.1004576
0.1004387
0.100415
0.1003845
0.100343
0.1002809
0.1001731
0.09994767
0.09938132
0.097723
0.09213585
0.07168519
0.01451835
0.1005378
0.1005637
0.1005978
0.1006124
0.1006213
0.100625
0.1006251
0.1006231
0.1006201
0.1006165
0.1006127
0.1006088
0.1006049
0.100601
0.1005971
0.1005933
0.1005895
0.1005857
0.1005819
0.1005781
0.1005743
0.1005705
0.1005667
0.1005629
0.1005591
0.1005553
0.1005514
0.1005473
0.100543
0.1005384
0.1005333
0.1005277
0.1005212
0.1005137
0.100505
0.1004947
0.1004823
0.1004674
0.1004491
0.1004262
0.1003967
0.1003563
0.1002955
0.1001893
0.09996607
0.09940244
0.09774697
0.09215893
0.07168653
0.01452005
0.1005377
0.1005636
0.1005978
0.1006125
0.1006217
0.1006256
0.1006259
0.1006242
0.1006214
0.1006181
0.1006145
0.1006109
0.1006073
0.1006037
0.1006001
0.1005966
0.1005931
0.1005897
0.1005862
0.1005828
0.1005793
0.1005759
0.1005725
0.100569
0.1005655
0.1005619
0.1005583
0.1005544
0.1005504
0.100546
0.1005411
0.1005357
0.1005295
0.1005224
0.100514
0.1005042
0.1004924
0.1004781
0.1004606
0.1004386
0.1004101
0.100371
0.1003118
0.1002077
0.09998693
0.09942655
0.09777452
0.09218556
0.07168792
0.01452204
0.1005377
0.1005635
0.1005978
0.1006127
0.1006221
0.1006263
0.1006268
0.1006254
0.1006229
0.1006198
0.1006165
0.1006132
0.1006098
0.1006065
0.1006033
0.1006001
0.1005969
0.1005938
0.1005907
0.1005876
0.1005845
0.1005814
0.1005782
0.1005751
0.1005719
0.1005686
0.1005653
0.1005617
0.1005579
0.1005538
0.1005492
0.1005441
0.1005382
0.1005315
0.1005236
0.1005143
0.1005032
0.1004897
0.100473
0.1004521
0.1004249
0.1003874
0.10033
0.1002282
0.1000105
0.09945394
0.09780604
0.09221619
0.0716893
0.01452438
0.1005376
0.1005634
0.1005978
0.1006129
0.1006226
0.100627
0.1006278
0.1006267
0.1006245
0.1006217
0.1006187
0.1006156
0.1006125
0.1006095
0.1006065
0.1006036
0.1006008
0.100598
0.1005952
0.1005924
0.1005897
0.1005869
0.1005841
0.1005813
0.1005784
0.1005754
0.1005723
0.1005691
0.1005655
0.1005617
0.1005575
0.1005527
0.1005473
0.100541
0.1005337
0.1005251
0.1005147
0.100502
0.1004865
0.1004668
0.1004411
0.1004053
0.1003502
0.1002511
0.1000369
0.09948495
0.09784203
0.09225138
0.0716906
0.01452713
0.1005377
0.1005633
0.1005979
0.1006132
0.1006231
0.1006277
0.1006289
0.100628
0.1006261
0.1006236
0.1006209
0.1006181
0.1006153
0.1006126
0.10061
0.1006074
0.1006048
0.1006023
0.1005998
0.1005974
0.1005949
0.1005925
0.10059
0.1005875
0.1005849
0.1005823
0.1005795
0.1005765
0.1005734
0.1005699
0.100566
0.1005617
0.1005568
0.100551
0.1005443
0.1005364
0.1005268
0.1005152
0.1005008
0.1004826
0.1004586
0.1004248
0.1003722
0.1002764
0.1000664
0.09951998
0.0978831
0.09229186
0.0716917
0.0145304
0.1005376
0.1005631
0.1005979
0.1006134
0.1006235
0.1006284
0.1006299
0.1006293
0.1006277
0.1006256
0.1006232
0.1006207
0.1006182
0.1006158
0.1006135
0.1006112
0.1006089
0.1006067
0.1006046
0.1006024
0.1006003
0.1005982
0.100596
0.1005938
0.1005916
0.1005892
0.1005868
0.1005842
0.1005813
0.1005782
0.1005748
0.1005709
0.1005665
0.1005614
0.1005554
0.1005482
0.1005396
0.1005291
0.1005161
0.1004994
0.1004773
0.100446
0.1003963
0.1003042
0.1000992
0.09955944
0.09792999
0.09233853
0.07169244
0.01453429
0.1005358
0.1005618
0.1005974
0.1006134
0.1006238
0.100629
0.1006307
0.1006305
0.1006293
0.1006275
0.1006254
0.1006233
0.1006211
0.100619
0.100617
0.100615
0.1006131
0.1006112
0.1006093
0.1006075
0.1006057
0.1006038
0.100602
0.1006001
0.1005982
0.1005962
0.100594
0.1005918
0.1005893
0.1005866
0.1005837
0.1005803
0.1005764
0.100572
0.1005667
0.1005604
0.1005529
0.1005436
0.100532
0.1005171
0.1004972
0.1004685
0.1004222
0.1003346
0.1001356
0.09960379
0.09798358
0.09239254
0.07169257
0.014539
0.1005281
0.1005567
0.1005949
0.1006125
0.1006236
0.1006291
0.1006312
0.1006314
0.1006305
0.1006291
0.1006274
0.1006256
0.1006238
0.1006221
0.1006203
0.1006187
0.100617
0.1006155
0.1006139
0.1006124
0.1006108
0.1006093
0.1006078
0.1006062
0.1006046
0.1006029
0.1006011
0.1005992
0.1005972
0.1005949
0.1005924
0.1005896
0.1005863
0.1005825
0.1005781
0.1005727
0.1005663
0.1005584
0.1005484
0.1005354
0.1005179
0.1004922
0.1004498
0.1003673
0.1001754
0.09965343
0.09804486
0.09245534
0.07169173
0.01454477
0.1005065
0.1005431
0.1005877
0.1006093
0.1006221
0.1006283
0.1006308
0.1006314
0.100631
0.1006301
0.1006288
0.1006274
0.100626
0.1006246
0.1006232
0.1006218
0.1006205
0.1006193
0.100618
0.1006168
0.1006155
0.1006143
0.1006131
0.1006118
0.1006105
0.1006092
0.1006078
0.1006062
0.1006046
0.1006028
0.1006007
0.1005984
0.1005958
0.1005927
0.1005891
0.1005847
0.1005795
0.1005729
0.1005646
0.1005538
0.1005389
0.1005166
0.1004786
0.100402
0.1002185
0.09970861
0.09811493
0.09252879
0.07168941
0.01455199
0.100493
0.1005259
0.1005743
0.1006022
0.1006181
0.1006255
0.1006287
0.10063
0.1006303
0.1006299
0.1006291
0.1006281
0.1006271
0.1006261
0.100625
0.100624
0.100623
0.100622
0.1006211
0.1006201
0.1006192
0.1006183
0.1006173
0.1006164
0.1006154
0.1006143
0.1006133
0.1006121
0.1006108
0.1006095
0.1006079
0.1006062
0.1006042
0.1006018
0.100599
0.1005957
0.1005916
0.1005865
0.10058
0.1005714
0.1005593
0.1005406
0.1005074
0.1004377
0.1002642
0.09976915
0.09819481
0.0926152
0.07168482
0.01456125
0.1006922
0.1005613
0.1005574
0.1005904
0.1006099
0.1006188
0.1006233
0.1006259
0.1006271
0.1006275
0.1006273
0.1006268
0.1006262
0.1006256
0.1006249
0.1006241
0.1006235
0.1006228
0.1006221
0.1006214
0.1006208
0.1006201
0.1006195
0.1006188
0.1006181
0.1006174
0.1006166
0.1006158
0.100615
0.100614
0.1006129
0.1006117
0.1006103
0.1006087
0.1006067
0.1006044
0.1006015
0.1005978
0.1005931
0.1005867
0.1005775
0.1005626
0.1005347
0.1004725
0.1003107
0.09983398
0.09828505
0.09271723
0.07167678
0.01457357
0.1007623
0.1006637
0.1005343
0.1005715
0.1005947
0.1006052
0.1006119
0.1006168
0.1006199
0.1006214
0.100622
0.100622
0.1006218
0.1006215
0.1006212
0.1006208
0.1006204
0.1006199
0.1006195
0.1006191
0.1006187
0.1006183
0.1006179
0.1006175
0.1006171
0.1006167
0.1006162
0.1006157
0.1006152
0.1006147
0.100614
0.1006133
0.1006125
0.1006115
0.1006103
0.1006089
0.1006071
0.1006048
0.1006018
0.1005976
0.1005911
0.10058
0.1005575
0.1005035
0.1003549
0.09990031
0.09838461
0.09283725
0.07166361
0.0145908
0.1003002
0.1003031
0.1004573
0.1005317
0.1005633
0.1005796
0.1005916
0.1006007
0.1006067
0.1006099
0.1006114
0.100612
0.1006122
0.1006123
0.1006122
0.100612
0.1006119
0.1006117
0.1006115
0.1006113
0.1006112
0.100611
0.1006108
0.1006106
0.1006104
0.1006102
0.10061
0.1006098
0.1006096
0.1006093
0.1006091
0.1006088
0.1006084
0.100608
0.1006075
0.1006068
0.100606
0.1006049
0.1006034
0.100601
0.1005971
0.1005895
0.1005722
0.1005264
0.1003919
0.09996249
0.09848825
0.09297344
0.07163942
0.01461644
0.1022608
0.1003564
0.1003953
0.1004711
0.1005415
0.1005753
0.1005749
0.1005806
0.1005882
0.1005933
0.1005957
0.1005967
0.1005972
0.1005975
0.1005976
0.1005976
0.1005977
0.1005977
0.1005976
0.1005976
0.1005976
0.1005976
0.1005975
0.1005975
0.1005975
0.1005975
0.1005974
0.1005974
0.1005974
0.1005974
0.1005974
0.1005974
0.1005974
0.1005973
0.1005973
0.1005972
0.1005971
0.1005969
0.1005965
0.1005956
0.1005937
0.100589
0.1005759
0.1005374
0.1004161
0.1000118
0.09857998
0.09310073
0.07158626
0.01465889
0.0977858
0.09919595
0.1002517
0.1006395
0.1008975
0.1009297
0.1006489
0.1005575
0.1005532
0.1005582
0.1005611
0.1005624
0.100563
0.1005633
0.1005635
0.1005637
0.1005638
0.1005639
0.100564
0.1005641
0.1005642
0.1005642
0.1005643
0.1005644
0.1005645
0.1005646
0.1005646
0.1005648
0.1005649
0.100565
0.1005652
0.1005653
0.1005655
0.1005658
0.100566
0.1005664
0.1005667
0.1005671
0.1005674
0.1005676
0.1005671
0.1005643
0.1005544
0.1005214
0.10041
0.1000222
0.09860391
0.09310625
0.07159921
0.01474821
0.0957162
0.09802628
0.1000038
0.1010191
0.1016454
0.1015684
0.1008964
0.1005579
0.1005285
0.1005335
0.1005362
0.1005371
0.1005374
0.1005376
0.1005377
0.1005379
0.100538
0.1005381
0.1005381
0.1005382
0.1005383
0.1005383
0.1005384
0.1005384
0.1005385
0.1005386
0.1005387
0.1005388
0.1005389
0.100539
0.1005391
0.1005393
0.1005395
0.1005397
0.10054
0.1005402
0.1005406
0.100541
0.1005414
0.1005416
0.1005413
0.100539
0.1005299
0.1004983
0.1003879
0.09998736
0.0984747
0.09261658
0.07204055
0.01476858
0.09496484
0.09731276
0.09866267
0.09920898
0.0985132
0.09863563
0.09959365
0.09982735
0.09981801
0.0998024
0.09979995
0.09980163
0.09980366
0.0998053
0.09980655
0.09980753
0.09980833
0.09980899
0.09980958
0.0998101
0.09981058
0.09981103
0.09981147
0.0998119
0.09981233
0.09981277
0.09981323
0.09981372
0.09981425
0.09981484
0.09981551
0.09981628
0.09981718
0.09981824
0.09981951
0.09982102
0.09982285
0.09982504
0.09982757
0.0998302
0.09983192
0.09982923
0.09981086
0.09974019
0.09949718
0.09868027
0.09593161
0.08680316
0.0602283
0.01498335
0.09734547
0.09872111
0.09942264
0.09967311
0.09957277
0.09965055
0.09989363
0.09991736
0.09989432
0.09988518
0.09988524
0.09988739
0.09988938
0.09989086
0.09989193
0.09989272
0.09989332
0.0998938
0.09989419
0.09989453
0.09989483
0.0998951
0.09989536
0.09989562
0.09989588
0.09989614
0.09989643
0.09989674
0.09989708
0.09989747
0.09989792
0.09989845
0.09989907
0.0998998
0.0999007
0.09990178
0.09990309
0.09990464
0.0999064
0.09990804
0.09990843
0.09990383
0.09988237
0.09980625
0.09955379
0.09872727
0.09601107
0.08708578
0.05977095
0.0148319
0.0988237
0.09945961
0.09974253
0.09985668
0.09989813
0.09993575
0.09995939
0.0999454
0.09993549
0.09993454
0.09993691
0.09993947
0.09994142
0.09994278
0.09994372
0.09994436
0.09994482
0.09994515
0.09994539
0.09994557
0.09994572
0.09994584
0.09994595
0.09994605
0.09994616
0.09994627
0.0999464
0.09994655
0.09994672
0.09994693
0.09994717
0.09994747
0.09994784
0.09994829
0.09994884
0.09994952
0.09995033
0.09995128
0.09995227
0.09995288
0.0999518
0.09994491
0.09991945
0.09983552
0.09956674
0.09870643
0.09592718
0.08689057
0.0593852
0.01467215
0.09854158
0.09965156
0.09988744
0.09992605
0.09995797
0.09998365
0.09999399
0.09999566
0.09999839
0.1000023
0.1000058
0.1000085
0.1000103
0.1000115
0.1000122
0.1000127
0.1000129
0.1000131
0.1000131
0.1000131
0.100013
0.100013
0.1000129
0.1000128
0.1000127
0.1000126
0.1000125
0.1000124
0.1000124
0.1000123
0.1000123
0.1000123
0.1000124
0.1000124
0.1000125
0.1000126
0.1000128
0.1000129
0.1000129
0.1000121
0.100009
0.09999912
0.0999685
0.09987477
0.09958584
0.09868379
0.09582753
0.08670605
0.05937577
0.01458211
0.09886634
0.09987796
0.0999813
0.09996543
0.09998563
0.1000115
0.1000293
0.1000404
0.1000482
0.1000538
0.1000576
0.1000601
0.1000617
0.1000625
0.100063
0.1000632
0.1000632
0.100063
0.1000628
0.1000625
0.1000622
0.1000618
0.1000615
0.1000611
0.1000607
0.1000604
0.10006
0.1000597
0.1000594
0.100059
0.1000587
0.1000583
0.1000579
0.1000575
0.100057
0.1000564
0.1000557
0.1000548
0.1000534
0.1000508
0.1000454
0.1000319
0.09999551
0.0998915
0.09958307
0.09864439
0.095731
0.08658504
0.05948859
0.01452402
0.09905986
0.09993501
0.09999681
0.09998356
0.1000088
0.1000383
0.1000599
0.100074
0.1000831
0.1000889
0.1000925
0.1000947
0.1000959
0.1000964
0.1000966
0.1000964
0.1000961
0.1000956
0.100095
0.1000944
0.1000937
0.100093
0.1000923
0.1000916
0.100091
0.1000903
0.1000896
0.100089
0.1000883
0.1000877
0.1000869
0.1000862
0.1000853
0.1000843
0.1000831
0.1000817
0.1000801
0.1000779
0.100075
0.1000705
0.1000623
0.1000451
0.1000028
0.09988905
0.09956353
0.09859588
0.09564455
0.08650485
0.05961942
0.01448339
0.09984023
0.09999512
0.09996718
0.09998718
0.1000262
0.1000593
0.1000821
0.1000968
0.100106
0.1001116
0.1001149
0.1001166
0.1001174
0.1001176
0.1001173
0.1001168
0.1001161
0.1001152
0.1001143
0.1001133
0.1001122
0.1001111
0.10011
0.100109
0.1001079
0.1001069
0.1001059
0.100105
0.100104
0.1001029
0.1001018
0.1001006
0.1000992
0.1000976
0.1000958
0.1000935
0.1000908
0.1000874
0.1000828
0.1000763
0.1000654
0.1000443
0.09999647
0.09987394
0.09953412
0.09854426
0.0955682
0.08644711
0.05973879
0.01445348
0.09987023
0.09992172
0.09993692
0.09999039
0.1000388
0.1000738
0.1000969
0.1001115
0.1001204
0.1001256
0.1001284
0.1001298
0.1001302
0.1001299
0.1001293
0.1001283
0.1001272
0.1001259
0.1001245
0.100123
0.1001215
0.10012
0.1001185
0.100117
0.1001156
0.1001142
0.1001129
0.1001116
0.1001103
0.1001089
0.1001074
0.1001058
0.1001039
0.1001017
0.1000991
0.1000961
0.1000923
0.1000876
0.1000814
0.1000728
0.1000593
0.1000346
0.0999816
0.09985139